LAMMPS (12 Dec 2018)
# Written by Lane enrique Schultz

# This input file can be used to hold at a beginning temperature, then
# ascend or descend into a final tempeerature for a number of steps, then
# hold at a final temperature.

# Specifics regarding definable parameters are covered by the READMEs

###############################################################################

# Starting parameters
units                                       metal
atom_style                                  atomic
dimension                                   3
boundary                                    p p p

###############################################################################

# Material
variable                                    fraction                  equal  0.08
variable                                    potential                 string /home/nerve/Documents/george/relaxation_steps/potentials/AlSm.eam.lammps.fs
variable                                    potential_type            string eam/fs

# Geometric
variable                                    side                      equal  4
variable                                    unit_cell_type            string fcc
variable                                    lattice_parm              equal  4.04092655671750

# Time variables
variable                                    mytimestep                equal  0.001

# Random seed
variable                                    seed                      equal  421133

# Data output
variable                                    mydumprate                equal  100
variable                                    data_file_characteristics string system.txt
variable                                    data_file_dump_rate       string traj.lammpstrj
variable                                    data_positions_final      string final.dat
variable                                    data_restart              string restart.rest

################################################################################

# Simulation space
lattice                                     ${unit_cell_type} ${lattice_parm}
lattice                                     fcc ${lattice_parm}
lattice                                     fcc 4.0409265567175
Lattice spacing in x,y,z = 4.04093 4.04093 4.04093
region                                      my_box block 0 ${side} 0 ${side} 0 ${side}
region                                      my_box block 0 4 0 ${side} 0 ${side}
region                                      my_box block 0 4 0 4 0 ${side}
region                                      my_box block 0 4 0 4 0 4
create_box                                  2 my_box
Created orthogonal box = (0 0 0) to (16.1637 16.1637 16.1637)
  1 by 1 by 1 MPI processor grid
create_atoms                                1 box
Created 256 atoms
  Time spent = 0.000298023 secs
set                                         group all type/fraction 2 ${fraction} 591904
set                                         group all type/fraction 2 0.08 591904
  14 settings made for type/fraction

################################################################################

# Data
pair_style                                  ${potential_type}
pair_style                                  eam/fs
pair_coeff                                  * * ${potential} Al Sm
pair_coeff                                  * * /home/nerve/Documents/george/relaxation_steps/potentials/AlSm.eam.lammps.fs Al Sm

################################################################################

# Computed values by LAMMPS
compute                                     mytemp      all   temp
compute                                     mypress     all   pressure thermo_temp
compute                                     PE          all   pe
compute                                     KE          all   ke

# Computed variables
variable                                    myvol       equal vol

################################################################################

# Time step
timestep                                    ${mytimestep}
timestep                                    0.001

################################################################################

# Save atom positions at an interval
dump                                        my_dump_rate all custom ${mydumprate} ${data_file_dump_rate} id type xu yu zu
dump                                        my_dump_rate all custom 100 ${data_file_dump_rate} id type xu yu zu
dump                                        my_dump_rate all custom 100 traj.lammpstrj id type xu yu zu
dump_modify                                 my_dump_rate sort id

################################################################################

# Open save data
fix                                         data_saving all ave/time 1 1 ${mydumprate} c_mytemp c_mypress v_myvol c_PE c_KE file ${data_file_characteristics}
fix                                         data_saving all ave/time 1 1 100 c_mytemp c_mypress v_myvol c_PE c_KE file ${data_file_characteristics}
fix                                         data_saving all ave/time 1 1 100 c_mytemp c_mypress v_myvol c_PE c_KE file system.txt

# Start of run
velocity all create 1300 ${seed} rot yes dist gaussian
velocity all create 1300 421133 rot yes dist gaussian

change_box all x final 0.0 17.27446633421692 y final 0.0 17.27446633421692 z final 0.0 17.27446633421692 units box
  orthogonal box = (0 0 0) to (17.2745 16.1637 16.1637)
  orthogonal box = (0 0 0) to (17.2745 17.2745 16.1637)
  orthogonal box = (0 0 0) to (17.2745 17.2745 17.2745)
fix step all nvt temp 1300 1300 0.1
run 15000
Neighbor list info ...
  update every 1 steps, delay 10 steps, check yes
  max neighbors/atom: 2000, page size: 100000
  master list distance cutoff = 10
  ghost atom cutoff = 10
  binsize = 5, bins = 4 4 4
  1 neighbor lists, perpetual/occasional/extra = 1 0 0
  (1) pair eam/fs, perpetual
      attributes: half, newton on
      pair build: half/bin/atomonly/newton
      stencil: half/bin/3d/newton
      bin: standard
Per MPI rank memory allocation (min/avg/max) = 4.683 | 4.683 | 4.683 Mbytes
Step Temp E_pair E_mol TotEng Press 
       0         1300   -948.98931            0   -906.13957    16182.711 
   15000    1219.4515   -951.83552            0   -911.64077   -4036.4812 
Loop time of 30.1624 on 1 procs for 15000 steps with 256 atoms

Performance: 42.967 ns/day, 0.559 hours/ns, 497.308 timesteps/s
100.0% CPU use with 1 MPI tasks x no OpenMP threads

MPI task timing breakdown:
Section |  min time  |  avg time  |  max time  |%varavg| %total
---------------------------------------------------------------
Pair    | 29.305     | 29.305     | 29.305     |   0.0 | 97.16
Neigh   | 0.28644    | 0.28644    | 0.28644    |   0.0 |  0.95
Comm    | 0.26655    | 0.26655    | 0.26655    |   0.0 |  0.88
Output  | 0.05501    | 0.05501    | 0.05501    |   0.0 |  0.18
Modify  | 0.17212    | 0.17212    | 0.17212    |   0.0 |  0.57
Other   |            | 0.07686    |            |       |  0.25

Nlocal:    256 ave 256 max 256 min
Histogram: 1 0 0 0 0 0 0 0 0 0
Nghost:    2354 ave 2354 max 2354 min
Histogram: 1 0 0 0 0 0 0 0 0 0
Neighs:    26479 ave 26479 max 26479 min
Histogram: 1 0 0 0 0 0 0 0 0 0

Total # of neighbors = 26479
Ave neighs/atom = 103.434
Neighbor list builds = 311
Dangerous builds = 0
unfix step
change_box all x final 0.0 16.9737441479144 y final 0.0 16.9737441479144 z final 0.0 16.9737441479144 units box
  orthogonal box = (0 0 0) to (16.9737 17.2745 17.2745)
  orthogonal box = (0 0 0) to (16.9737 16.9737 17.2745)
  orthogonal box = (0 0 0) to (16.9737 16.9737 16.9737)
fix step all nvt temp 800 800 0.1
run 15000
Per MPI rank memory allocation (min/avg/max) = 4.684 | 4.684 | 4.684 Mbytes
Step Temp E_pair E_mol TotEng Press 
   15000    1219.4515   -936.94321            0   -896.74846     46918.22 
   30000    811.72706    -980.7719            0   -954.01629   -1154.6512 
Loop time of 31.1191 on 1 procs for 15000 steps with 256 atoms

Performance: 41.646 ns/day, 0.576 hours/ns, 482.019 timesteps/s
100.0% CPU use with 1 MPI tasks x no OpenMP threads

MPI task timing breakdown:
Section |  min time  |  avg time  |  max time  |%varavg| %total
---------------------------------------------------------------
Pair    | 30.344     | 30.344     | 30.344     |   0.0 | 97.51
Neigh   | 0.20759    | 0.20759    | 0.20759    |   0.0 |  0.67
Comm    | 0.26729    | 0.26729    | 0.26729    |   0.0 |  0.86
Output  | 0.056454   | 0.056454   | 0.056454   |   0.0 |  0.18
Modify  | 0.16854    | 0.16854    | 0.16854    |   0.0 |  0.54
Other   |            | 0.0749     |            |       |  0.24

Nlocal:    256 ave 256 max 256 min
Histogram: 1 0 0 0 0 0 0 0 0 0
Nghost:    2371 ave 2371 max 2371 min
Histogram: 1 0 0 0 0 0 0 0 0 0
Neighs:    27857 ave 27857 max 27857 min
Histogram: 1 0 0 0 0 0 0 0 0 0

Total # of neighbors = 27857
Ave neighs/atom = 108.816
Neighbor list builds = 224
Dangerous builds = 0
unfix step
change_box all x final 0.0 16.73139778457636 y final 0.0 16.73139778457636 z final 0.0 16.73139778457636 units box
  orthogonal box = (0 0 0) to (16.7314 16.9737 16.9737)
  orthogonal box = (0 0 0) to (16.7314 16.7314 16.9737)
  orthogonal box = (0 0 0) to (16.7314 16.7314 16.7314)
fix step all nvt temp 300 300 0.1
run 15000
Per MPI rank memory allocation (min/avg/max) = 4.685 | 4.685 | 4.685 Mbytes
Step Temp E_pair E_mol TotEng Press 
   30000    811.72706   -971.66327            0   -944.90766    41521.354 
   45000    305.00165   -1006.2997            0   -996.24647    1946.3497 
Loop time of 32.1212 on 1 procs for 15000 steps with 256 atoms

Performance: 40.347 ns/day, 0.595 hours/ns, 466.981 timesteps/s
99.9% CPU use with 1 MPI tasks x no OpenMP threads

MPI task timing breakdown:
Section |  min time  |  avg time  |  max time  |%varavg| %total
---------------------------------------------------------------
Pair    | 31.476     | 31.476     | 31.476     |   0.0 | 97.99
Neigh   | 0.052149   | 0.052149   | 0.052149   |   0.0 |  0.16
Comm    | 0.2807     | 0.2807     | 0.2807     |   0.0 |  0.87
Output  | 0.057122   | 0.057122   | 0.057122   |   0.0 |  0.18
Modify  | 0.17478    | 0.17478    | 0.17478    |   0.0 |  0.54
Other   |            | 0.08043    |            |       |  0.25

Nlocal:    256 ave 256 max 256 min
Histogram: 1 0 0 0 0 0 0 0 0 0
Nghost:    2414 ave 2414 max 2414 min
Histogram: 1 0 0 0 0 0 0 0 0 0
Neighs:    29297 ave 29297 max 29297 min
Histogram: 1 0 0 0 0 0 0 0 0 0

Total # of neighbors = 29297
Ave neighs/atom = 114.441
Neighbor list builds = 56
Dangerous builds = 0
unfix step


# Close save data
unfix                                       data_saving

################################################################################

# Data for final position and properties
write_data                                  ${data_positions_final}
write_data                                  final.dat
write_restart                               ${data_restart}
write_restart                               restart.rest
Total wall time: 0:01:33
