ITEM: TIMESTEP
0
ITEM: NUMBER OF ATOMS
256
ITEM: BOX BOUNDS pp pp pp
0.0000000000000000e+00 1.7274466334216921e+01
0.0000000000000000e+00 1.7274466334216921e+01
0.0000000000000000e+00 1.7274466334216921e+01
ITEM: ATOMS id type xu yu zu 
1 1 0 0 0 
2 1 2.02046 2.02046 0 
3 1 2.02046 0 2.02046 
4 1 0 2.02046 2.02046 
5 2 4.04093 0 0 
6 1 6.06139 2.02046 0 
7 1 6.06139 0 2.02046 
8 1 4.04093 2.02046 2.02046 
9 1 8.08185 0 0 
10 1 10.1023 2.02046 0 
11 1 10.1023 0 2.02046 
12 1 8.08185 2.02046 2.02046 
13 1 12.1228 0 0 
14 1 14.1432 2.02046 0 
15 1 14.1432 0 2.02046 
16 1 12.1228 2.02046 2.02046 
17 1 0 4.04093 0 
18 1 2.02046 6.06139 0 
19 1 2.02046 4.04093 2.02046 
20 1 0 6.06139 2.02046 
21 1 4.04093 4.04093 0 
22 1 6.06139 6.06139 0 
23 1 6.06139 4.04093 2.02046 
24 1 4.04093 6.06139 2.02046 
25 1 8.08185 4.04093 0 
26 1 10.1023 6.06139 0 
27 1 10.1023 4.04093 2.02046 
28 1 8.08185 6.06139 2.02046 
29 1 12.1228 4.04093 0 
30 1 14.1432 6.06139 0 
31 1 14.1432 4.04093 2.02046 
32 1 12.1228 6.06139 2.02046 
33 1 0 8.08185 0 
34 1 2.02046 10.1023 0 
35 2 2.02046 8.08185 2.02046 
36 1 0 10.1023 2.02046 
37 1 4.04093 8.08185 0 
38 1 6.06139 10.1023 0 
39 1 6.06139 8.08185 2.02046 
40 1 4.04093 10.1023 2.02046 
41 1 8.08185 8.08185 0 
42 1 10.1023 10.1023 0 
43 1 10.1023 8.08185 2.02046 
44 1 8.08185 10.1023 2.02046 
45 1 12.1228 8.08185 0 
46 1 14.1432 10.1023 0 
47 1 14.1432 8.08185 2.02046 
48 1 12.1228 10.1023 2.02046 
49 1 0 12.1228 0 
50 1 2.02046 14.1432 0 
51 1 2.02046 12.1228 2.02046 
52 1 0 14.1432 2.02046 
53 1 4.04093 12.1228 0 
54 1 6.06139 14.1432 0 
55 1 6.06139 12.1228 2.02046 
56 1 4.04093 14.1432 2.02046 
57 1 8.08185 12.1228 0 
58 1 10.1023 14.1432 0 
59 1 10.1023 12.1228 2.02046 
60 1 8.08185 14.1432 2.02046 
61 1 12.1228 12.1228 0 
62 1 14.1432 14.1432 0 
63 1 14.1432 12.1228 2.02046 
64 1 12.1228 14.1432 2.02046 
65 1 0 0 4.04093 
66 1 2.02046 2.02046 4.04093 
67 1 2.02046 0 6.06139 
68 1 0 2.02046 6.06139 
69 1 4.04093 0 4.04093 
70 1 6.06139 2.02046 4.04093 
71 1 6.06139 0 6.06139 
72 1 4.04093 2.02046 6.06139 
73 1 8.08185 0 4.04093 
74 1 10.1023 2.02046 4.04093 
75 1 10.1023 0 6.06139 
76 2 8.08185 2.02046 6.06139 
77 1 12.1228 0 4.04093 
78 1 14.1432 2.02046 4.04093 
79 1 14.1432 0 6.06139 
80 1 12.1228 2.02046 6.06139 
81 1 0 4.04093 4.04093 
82 1 2.02046 6.06139 4.04093 
83 1 2.02046 4.04093 6.06139 
84 1 0 6.06139 6.06139 
85 1 4.04093 4.04093 4.04093 
86 1 6.06139 6.06139 4.04093 
87 1 6.06139 4.04093 6.06139 
88 1 4.04093 6.06139 6.06139 
89 1 8.08185 4.04093 4.04093 
90 1 10.1023 6.06139 4.04093 
91 1 10.1023 4.04093 6.06139 
92 1 8.08185 6.06139 6.06139 
93 1 12.1228 4.04093 4.04093 
94 1 14.1432 6.06139 4.04093 
95 1 14.1432 4.04093 6.06139 
96 1 12.1228 6.06139 6.06139 
97 1 0 8.08185 4.04093 
98 1 2.02046 10.1023 4.04093 
99 1 2.02046 8.08185 6.06139 
100 1 0 10.1023 6.06139 
101 1 4.04093 8.08185 4.04093 
102 1 6.06139 10.1023 4.04093 
103 1 6.06139 8.08185 6.06139 
104 1 4.04093 10.1023 6.06139 
105 1 8.08185 8.08185 4.04093 
106 1 10.1023 10.1023 4.04093 
107 1 10.1023 8.08185 6.06139 
108 1 8.08185 10.1023 6.06139 
109 1 12.1228 8.08185 4.04093 
110 1 14.1432 10.1023 4.04093 
111 2 14.1432 8.08185 6.06139 
112 1 12.1228 10.1023 6.06139 
113 1 0 12.1228 4.04093 
114 1 2.02046 14.1432 4.04093 
115 1 2.02046 12.1228 6.06139 
116 1 0 14.1432 6.06139 
117 1 4.04093 12.1228 4.04093 
118 1 6.06139 14.1432 4.04093 
119 1 6.06139 12.1228 6.06139 
120 1 4.04093 14.1432 6.06139 
121 1 8.08185 12.1228 4.04093 
122 1 10.1023 14.1432 4.04093 
123 1 10.1023 12.1228 6.06139 
124 1 8.08185 14.1432 6.06139 
125 1 12.1228 12.1228 4.04093 
126 1 14.1432 14.1432 4.04093 
127 1 14.1432 12.1228 6.06139 
128 1 12.1228 14.1432 6.06139 
129 1 0 0 8.08185 
130 1 2.02046 2.02046 8.08185 
131 1 2.02046 0 10.1023 
132 1 0 2.02046 10.1023 
133 1 4.04093 0 8.08185 
134 1 6.06139 2.02046 8.08185 
135 1 6.06139 0 10.1023 
136 1 4.04093 2.02046 10.1023 
137 1 8.08185 0 8.08185 
138 1 10.1023 2.02046 8.08185 
139 1 10.1023 0 10.1023 
140 1 8.08185 2.02046 10.1023 
141 1 12.1228 0 8.08185 
142 1 14.1432 2.02046 8.08185 
143 1 14.1432 0 10.1023 
144 1 12.1228 2.02046 10.1023 
145 1 0 4.04093 8.08185 
146 1 2.02046 6.06139 8.08185 
147 1 2.02046 4.04093 10.1023 
148 1 0 6.06139 10.1023 
149 1 4.04093 4.04093 8.08185 
150 1 6.06139 6.06139 8.08185 
151 1 6.06139 4.04093 10.1023 
152 1 4.04093 6.06139 10.1023 
153 1 8.08185 4.04093 8.08185 
154 1 10.1023 6.06139 8.08185 
155 1 10.1023 4.04093 10.1023 
156 1 8.08185 6.06139 10.1023 
157 2 12.1228 4.04093 8.08185 
158 1 14.1432 6.06139 8.08185 
159 1 14.1432 4.04093 10.1023 
160 1 12.1228 6.06139 10.1023 
161 1 0 8.08185 8.08185 
162 1 2.02046 10.1023 8.08185 
163 1 2.02046 8.08185 10.1023 
164 1 0 10.1023 10.1023 
165 1 4.04093 8.08185 8.08185 
166 1 6.06139 10.1023 8.08185 
167 1 6.06139 8.08185 10.1023 
168 1 4.04093 10.1023 10.1023 
169 1 8.08185 8.08185 8.08185 
170 1 10.1023 10.1023 8.08185 
171 1 10.1023 8.08185 10.1023 
172 2 8.08185 10.1023 10.1023 
173 2 12.1228 8.08185 8.08185 
174 1 14.1432 10.1023 8.08185 
175 1 14.1432 8.08185 10.1023 
176 1 12.1228 10.1023 10.1023 
177 1 0 12.1228 8.08185 
178 1 2.02046 14.1432 8.08185 
179 1 2.02046 12.1228 10.1023 
180 1 0 14.1432 10.1023 
181 1 4.04093 12.1228 8.08185 
182 1 6.06139 14.1432 8.08185 
183 1 6.06139 12.1228 10.1023 
184 1 4.04093 14.1432 10.1023 
185 1 8.08185 12.1228 8.08185 
186 1 10.1023 14.1432 8.08185 
187 1 10.1023 12.1228 10.1023 
188 2 8.08185 14.1432 10.1023 
189 1 12.1228 12.1228 8.08185 
190 1 14.1432 14.1432 8.08185 
191 1 14.1432 12.1228 10.1023 
192 1 12.1228 14.1432 10.1023 
193 1 0 0 12.1228 
194 1 2.02046 2.02046 12.1228 
195 1 2.02046 0 14.1432 
196 1 0 2.02046 14.1432 
197 1 4.04093 0 12.1228 
198 1 6.06139 2.02046 12.1228 
199 1 6.06139 0 14.1432 
200 1 4.04093 2.02046 14.1432 
201 1 8.08185 0 12.1228 
202 2 10.1023 2.02046 12.1228 
203 1 10.1023 0 14.1432 
204 1 8.08185 2.02046 14.1432 
205 1 12.1228 0 12.1228 
206 1 14.1432 2.02046 12.1228 
207 1 14.1432 0 14.1432 
208 1 12.1228 2.02046 14.1432 
209 1 0 4.04093 12.1228 
210 1 2.02046 6.06139 12.1228 
211 1 2.02046 4.04093 14.1432 
212 1 0 6.06139 14.1432 
213 1 4.04093 4.04093 12.1228 
214 2 6.06139 6.06139 12.1228 
215 1 6.06139 4.04093 14.1432 
216 1 4.04093 6.06139 14.1432 
217 1 8.08185 4.04093 12.1228 
218 1 10.1023 6.06139 12.1228 
219 1 10.1023 4.04093 14.1432 
220 1 8.08185 6.06139 14.1432 
221 1 12.1228 4.04093 12.1228 
222 1 14.1432 6.06139 12.1228 
223 1 14.1432 4.04093 14.1432 
224 1 12.1228 6.06139 14.1432 
225 1 0 8.08185 12.1228 
226 1 2.02046 10.1023 12.1228 
227 1 2.02046 8.08185 14.1432 
228 2 0 10.1023 14.1432 
229 1 4.04093 8.08185 12.1228 
230 1 6.06139 10.1023 12.1228 
231 1 6.06139 8.08185 14.1432 
232 1 4.04093 10.1023 14.1432 
233 1 8.08185 8.08185 12.1228 
234 2 10.1023 10.1023 12.1228 
235 1 10.1023 8.08185 14.1432 
236 1 8.08185 10.1023 14.1432 
237 1 12.1228 8.08185 12.1228 
238 2 14.1432 10.1023 12.1228 
239 1 14.1432 8.08185 14.1432 
240 1 12.1228 10.1023 14.1432 
241 1 0 12.1228 12.1228 
242 1 2.02046 14.1432 12.1228 
243 2 2.02046 12.1228 14.1432 
244 1 0 14.1432 14.1432 
245 1 4.04093 12.1228 12.1228 
246 1 6.06139 14.1432 12.1228 
247 1 6.06139 12.1228 14.1432 
248 1 4.04093 14.1432 14.1432 
249 1 8.08185 12.1228 12.1228 
250 1 10.1023 14.1432 12.1228 
251 1 10.1023 12.1228 14.1432 
252 1 8.08185 14.1432 14.1432 
253 1 12.1228 12.1228 12.1228 
254 1 14.1432 14.1432 12.1228 
255 1 14.1432 12.1228 14.1432 
256 1 12.1228 14.1432 14.1432 
ITEM: TIMESTEP
100
ITEM: NUMBER OF ATOMS
256
ITEM: BOX BOUNDS pp pp pp
0.0000000000000000e+00 1.7274466334216921e+01
0.0000000000000000e+00 1.7274466334216921e+01
0.0000000000000000e+00 1.7274466334216921e+01
ITEM: ATOMS id type xu yu zu 
1 1 0.34345 -0.780139 -0.00983508 
2 1 1.78384 1.61233 -0.558213 
3 1 1.45031 -0.760399 2.33987 
4 1 -0.132795 1.92155 1.85812 
5 2 4.03145 -0.270093 -0.137305 
6 1 6.1862 2.94892 -0.584032 
7 1 6.38733 -0.59743 1.86005 
8 1 3.80261 2.08541 2.0733 
9 1 8.15436 -0.926535 -0.705767 
10 1 9.62459 1.89169 -0.175079 
11 1 9.98624 -0.287439 1.25247 
12 1 7.8539 2.10186 1.76992 
13 1 11.9245 -0.546344 -0.440587 
14 1 14.1661 1.82142 -0.694588 
15 1 14.6607 0.417216 2.18499 
16 1 12.1046 1.66245 1.4604 
17 1 -0.810698 3.72257 -0.743602 
18 1 1.97153 5.91696 -0.898508 
19 1 1.3509 4.01883 2.24391 
20 1 -0.722604 5.53046 1.82886 
21 1 3.65913 3.43253 -0.364679 
22 1 6.14793 5.53983 -0.753845 
23 1 6.0644 4.05103 1.87943 
24 1 4.15012 5.84563 2.14792 
25 1 8.37316 4.40676 -0.441306 
26 1 10.5476 6.44879 -0.30191 
27 1 10.0817 3.95497 1.64304 
28 1 8.12142 6.2724 1.96084 
29 1 11.919 4.01085 -0.299435 
30 1 14.4106 6.97787 0.429351 
31 1 14.3824 4.06118 0.592805 
32 1 12.4033 5.96828 1.62598 
33 1 -0.70385 7.85438 -0.718201 
34 1 2.0368 10.1125 -0.478165 
35 2 2.07636 7.80102 1.53195 
36 1 -0.743023 10.2502 1.18611 
37 1 3.84003 7.55273 -0.999819 
38 1 6.04309 10.0685 -0.367234 
39 1 5.54729 8.1618 1.58143 
40 1 4.09368 10.4178 1.93223 
41 1 7.90674 7.96808 0.0246651 
42 1 9.30468 10.0594 -0.713663 
43 1 10.1486 8.35615 1.98143 
44 1 7.98122 10.295 2.00224 
45 1 12.0943 8.56811 -0.304085 
46 1 14.5112 10.5084 -0.420717 
47 1 14.8699 8.13603 2.72113 
48 1 11.8805 10.5811 1.62788 
49 1 -0.288766 11.9715 -0.758952 
50 1 1.84599 14.5779 -0.433027 
51 1 1.75542 12.0998 1.55565 
52 1 -0.528351 14.3518 1.99276 
53 1 4.43482 12.4354 -0.406638 
54 1 5.81409 14.6712 -0.254473 
55 1 5.79578 12.9661 2.13929 
56 1 3.6641 14.7988 1.90972 
57 1 7.35559 12.6199 -0.17371 
58 1 10.503 14.6601 -0.489543 
59 1 10.2851 12.7384 1.61479 
60 1 8.32392 14.6805 1.76974 
61 1 12.5309 12.3248 -0.520573 
62 1 15.1292 13.8172 0.126872 
63 1 15.0252 12.2713 2.28622 
64 1 11.7121 15.0569 1.88996 
65 1 -0.44247 -0.234678 4.20425 
66 1 1.89322 1.6074 4.09719 
67 1 1.88591 -0.73139 5.75373 
68 1 -0.325983 1.73011 6.47456 
69 1 3.95474 -0.419788 3.36065 
70 1 5.89368 1.6851 3.84406 
71 1 5.75656 -0.667998 5.59624 
72 1 4.13179 1.62705 5.96725 
73 1 8.19016 -0.691097 4.2542 
74 1 9.69491 1.4848 3.67613 
75 1 10.3324 -0.866435 5.87425 
76 2 8.12705 1.77627 6.26686 
77 1 11.9728 -0.555306 3.75832 
78 1 14.8593 1.78222 4.69063 
79 1 14.5259 -0.993064 5.4467 
80 1 11.351 1.52228 5.76762 
81 1 -0.529313 3.62801 4.20672 
82 1 1.36215 5.73777 4.10428 
83 1 1.74547 3.65052 6.06396 
84 1 -0.440274 5.44781 5.99722 
85 1 3.75313 4.1414 4.30893 
86 1 5.93995 6.26893 4.06729 
87 1 5.88276 3.91585 6.24459 
88 1 3.82276 6.22414 5.93722 
89 1 7.71056 4.03768 3.86505 
90 1 10.063 6.30137 3.87753 
91 1 10.1057 4.08441 5.42121 
92 1 7.84047 5.96955 5.89058 
93 1 12.4433 3.34169 3.9387 
94 1 14.2337 5.34717 3.45171 
95 1 14.7088 4.36383 5.95202 
96 1 12.4598 5.88967 5.25611 
97 1 -0.262198 8.10463 3.88416 
98 1 1.89003 10.3068 3.84256 
99 1 1.70892 8.12681 5.51838 
100 1 -0.809277 10.4143 6.01203 
101 1 4.0434 8.2052 4.07569 
102 1 6.03963 10.5559 3.8375 
103 1 5.82023 8.25716 6.05332 
104 1 3.89455 10.5671 5.77258 
105 1 7.95133 8.33525 4.00949 
106 1 10.0407 10.4533 3.96758 
107 1 10.0911 7.93639 5.82192 
108 1 7.85384 10.3386 5.94284 
109 1 12.4657 8.17794 3.66278 
110 1 14.0691 10.4277 3.96229 
111 2 14.9231 7.75405 5.81528 
112 1 12.7579 10.5546 6.25295 
113 1 -0.138929 12.0559 3.62371 
114 1 1.37911 14.364 4.35151 
115 1 1.42088 12.354 6.30104 
116 1 -0.553243 14.5232 6.28023 
117 1 3.58435 12.7362 3.80013 
118 1 6.06291 14.7779 3.66463 
119 1 5.86973 12.6857 5.69986 
120 1 3.74273 14.7249 5.88412 
121 1 8.1632 12.8152 3.84522 
122 1 10.2654 14.6002 3.97839 
123 1 10.2315 12.7299 5.85635 
124 1 8.03177 14.8886 6.09622 
125 1 12.1569 12.6989 3.59411 
126 1 14.7156 14.6024 3.51521 
127 1 14.8235 12.2181 6.1247 
128 1 12.6501 14.7661 5.81143 
129 1 -0.0493049 -0.761024 8.23093 
130 1 1.74559 1.87932 8.07756 
131 1 1.92213 -0.491431 10.1707 
132 1 -0.282898 1.55593 9.96834 
133 1 3.94451 -0.443224 7.6415 
134 1 5.871 1.40016 8.04874 
135 1 5.73905 -0.695189 10.1565 
136 1 3.93539 1.73127 10.2328 
137 1 7.87977 -0.718677 8.14233 
138 1 10.3421 1.45108 8.82441 
139 1 10.4438 -0.861698 9.86416 
140 1 7.59432 1.37801 9.97507 
141 1 12.4672 -0.298844 7.8688 
142 1 14.8135 1.36292 7.53848 
143 1 14.9425 -0.236432 9.64719 
144 1 12.8873 1.57789 10.237 
145 1 -0.538129 3.74254 8.10813 
146 1 1.69363 6.16708 7.82517 
147 1 1.66492 3.89413 10.0812 
148 1 -0.153274 5.66913 10.1486 
149 1 3.68875 3.99796 7.88386 
150 1 5.78252 6.0471 8.14706 
151 1 5.711 4.15696 10.1469 
152 1 3.55216 6.06519 10.0225 
153 1 7.92952 3.89874 8.2251 
154 1 9.83701 5.76571 7.77152 
155 1 10.0506 4.23707 10.2381 
156 1 7.72137 6.07971 9.99329 
157 2 12.133 3.83 8.03231 
158 1 15.0273 5.78174 8.37662 
159 1 15.2686 3.68463 10.3917 
160 1 12.7485 5.84967 10.6035 
161 1 -0.494393 7.94265 8.11855 
162 1 1.38312 10.2114 7.92463 
163 1 1.40896 8.06392 9.89509 
164 1 -0.454726 9.91762 10.049 
165 1 3.58388 8.14878 7.78722 
166 1 5.77223 10.5577 7.83975 
167 1 5.55457 8.40061 9.63157 
168 1 3.4352 10.3125 9.74224 
169 1 8.09288 8.32358 7.72842 
170 1 10.1977 10.1036 7.42077 
171 1 10.139 7.2928 10.4011 
172 2 8.10486 10.3808 9.76301 
173 2 12.1032 7.72166 8.1403 
174 1 14.6433 10.3842 8.78664 
175 1 14.8559 7.89795 9.97303 
176 1 12.1346 10.6976 9.52321 
177 1 -0.718363 12.2632 8.0009 
178 1 2.24664 14.9467 8.25117 
179 1 1.69627 12.4925 9.50035 
180 1 -0.599581 14.8499 10.0097 
181 1 3.80168 12.557 7.77587 
182 1 5.82989 14.9904 7.89776 
183 1 5.95627 12.3217 9.85699 
184 1 4.57466 14.5798 9.94749 
185 1 8.22456 12.4821 7.67145 
186 1 10.84 14.904 7.83128 
187 1 10.4579 12.7885 9.84147 
188 2 8.18821 14.6655 10.2637 
189 1 12.619 12.8723 7.97254 
190 1 14.8014 14.7196 7.75582 
191 1 14.8872 13.0866 10.2521 
192 1 12.7224 15.0442 9.80686 
193 1 -0.835107 -0.340274 11.9933 
194 1 1.79797 1.80377 12.5897 
195 1 1.30815 -0.158176 14.373 
196 1 -0.417466 1.84918 14.8388 
197 1 3.83638 -0.322718 12.1955 
198 1 6.05865 1.33953 12.4319 
199 1 6.14538 -0.898245 15.1334 
200 1 3.97263 1.43963 14.7599 
201 1 8.01453 -0.456766 12.3649 
202 2 10.1522 2.02579 12.7573 
203 1 10.732 -0.796519 14.5224 
204 1 7.72501 1.62768 15.0786 
205 1 12.7463 -0.81116 12.0538 
206 1 15.3644 1.94655 12.5795 
207 1 13.8727 0.116934 14.3319 
208 1 11.6024 1.79945 15.3272 
209 1 -0.0796597 3.79368 12.4359 
210 1 1.91167 5.75052 12.1685 
211 1 1.77849 3.62132 14.9522 
212 1 -0.618015 5.71172 14.6462 
213 1 3.97741 3.95956 12.4238 
214 2 6.01473 6.52968 12.2923 
215 1 5.87502 3.63646 14.283 
216 1 4.10252 5.31971 14.8576 
217 1 8.06466 4.01456 12.0569 
218 1 10.1416 5.79928 13.2302 
219 1 10.168 4.21744 15.0013 
220 1 8.20418 6.30372 15.0038 
221 1 13.2996 3.74219 12.359 
222 1 15.0311 6.05065 12.8995 
223 1 14.537 4.08034 14.9764 
224 1 12.436 5.75885 14.9049 
225 1 -0.490827 7.63927 11.9301 
226 1 1.53242 10.231 11.9062 
227 1 2.01226 7.37851 14.25 
228 2 -0.600811 9.63943 14.6754 
229 1 3.52786 7.96776 12.0481 
230 1 6.19649 9.72854 12.1232 
231 1 6.44118 7.86842 15.3812 
232 1 3.80438 9.73926 14.7356 
233 1 8.72276 7.96077 12.4907 
234 2 10.5951 10.2914 12.3321 
235 1 10.2646 7.91436 14.9428 
236 1 8.03564 9.96289 14.4181 
237 1 12.2284 7.71027 12.6738 
238 2 14.6939 10.5022 12.2329 
239 1 14.2655 7.8874 15.2776 
240 1 12.304 10.4411 15.1854 
241 1 -0.23393 12.5762 12.0098 
242 1 1.96032 14.8164 11.7932 
243 2 2.41538 12.6117 14.7047 
244 1 -0.074788 15.0611 13.1883 
245 1 3.7081 12.4055 11.7367 
246 1 5.68577 14.9529 12.7688 
247 1 5.51049 11.9006 14.8128 
248 1 3.2763 15.5396 14.3556 
249 1 7.81419 12.3226 12.7806 
250 1 10.28 14.2967 12.868 
251 1 9.70448 12.3411 15.6638 
252 1 7.79467 14.893 14.3271 
253 1 12.6972 12.99 12.5495 
254 1 15.0402 14.0867 12.6329 
255 1 14.6623 12.4653 15.1543 
256 1 12.5522 14.5983 14.9137 
ITEM: TIMESTEP
200
ITEM: NUMBER OF ATOMS
256
ITEM: BOX BOUNDS pp pp pp
0.0000000000000000e+00 1.7274466334216921e+01
0.0000000000000000e+00 1.7274466334216921e+01
0.0000000000000000e+00 1.7274466334216921e+01
ITEM: ATOMS id type xu yu zu 
1 1 -1.11119 -0.907678 -0.531767 
2 1 1.17646 1.34743 -0.582139 
3 1 1.45513 -0.111513 1.47932 
4 1 -0.515196 1.80805 1.79623 
5 2 3.657 -0.295789 -0.0218909 
6 1 6.13661 1.3656 -0.538577 
7 1 6.466 -0.665192 1.32523 
8 1 3.7264 1.79751 1.94593 
9 1 8.11421 -1.19552 -0.830909 
10 1 9.09221 1.58898 -0.455595 
11 1 9.6443 -0.429926 1.3741 
12 1 7.71283 1.92024 1.76663 
13 1 13.2298 -0.75722 -0.526222 
14 1 14.8872 1.19808 0.466194 
15 1 15.0605 -0.379806 2.22042 
16 1 12.0505 1.43695 0.958819 
17 1 -0.0304794 3.77913 -0.473877 
18 1 2.02683 5.44477 -0.417529 
19 1 1.94437 3.70676 1.73242 
20 1 -0.318615 5.18113 2.07098 
21 1 3.39089 3.08934 -0.833558 
22 1 5.60074 5.56465 -0.711014 
23 1 5.5884 3.57322 1.6078 
24 1 3.8815 5.58722 1.73158 
25 1 7.96096 4.1778 0.382192 
26 1 10.082 6.01998 -0.155087 
27 1 10.1284 3.85353 1.96653 
28 1 7.37777 6.26141 2.17367 
29 1 12.3654 3.691 -0.638563 
30 1 14.3566 6.71329 0.0173251 
31 1 14.5351 3.98998 1.3152 
32 1 12.4074 5.96779 2.02308 
33 1 -0.572902 7.65632 -0.465058 
34 1 2.04397 10.3516 -1.33047 
35 2 1.90677 7.73493 1.31408 
36 1 -0.533891 9.88231 1.21 
37 1 3.73051 7.32621 -0.940656 
38 1 5.85075 10.1999 -0.577598 
39 1 5.64073 7.89238 1.07592 
40 1 3.59841 10.13 1.41704 
41 1 8.07692 8.09332 -0.680462 
42 1 10.1886 10.7075 -0.0321919 
43 1 10.1253 8.43629 1.77587 
44 1 8.03952 10.8041 1.73422 
45 1 12.3394 8.63701 0.118587 
46 1 14.2669 10.5697 -0.14913 
47 1 14.8805 7.99245 2.36519 
48 1 12.378 10.8213 2.02997 
49 1 -0.11856 12.5777 -1.03682 
50 1 1.76952 14.7554 -0.426881 
51 1 1.25106 12.0481 1.16398 
52 1 0.402818 14.471 1.73164 
53 1 3.75711 12.5183 -0.089627 
54 1 5.45025 14.4073 -0.272593 
55 1 5.77784 12.3701 2.03633 
56 1 3.63963 14.6024 2.2472 
57 1 7.75238 12.4928 -0.988311 
58 1 11.1712 14.8424 -1.27825 
59 1 10.2494 12.5853 1.5349 
60 1 7.98333 14.064 1.74977 
61 1 12.6312 12.8896 -0.17175 
62 1 15.341 14.2926 0.233138 
63 1 14.6629 12.2915 1.36014 
64 1 12.7406 15.139 1.66572 
65 1 -0.0396417 -0.921049 3.48604 
66 1 1.54705 1.68944 3.50859 
67 1 1.96565 -0.611403 5.85237 
68 1 -0.652684 1.34245 5.103 
69 1 3.78828 -0.259182 3.39384 
70 1 5.83429 1.54274 3.60222 
71 1 5.72462 -0.419599 6.28074 
72 1 3.706 1.33916 5.48766 
73 1 8.1647 -0.440147 3.4549 
74 1 10.1321 1.65827 3.51838 
75 1 10.4283 -1.07624 5.8971 
76 2 8.42228 1.56057 6.19385 
77 1 12.7828 -0.330068 3.70926 
78 1 13.7138 1.89942 4.93923 
79 1 14.9581 -0.471163 5.53997 
80 1 11.3953 1.44826 5.90529 
81 1 -0.542439 3.4061 3.70622 
82 1 1.69183 5.47256 3.62222 
83 1 1.60658 3.27134 6.05731 
84 1 -0.296558 5.6724 6.16964 
85 1 3.70498 3.77585 3.90675 
86 1 5.47981 5.97865 4.1441 
87 1 5.60874 3.50596 5.98106 
88 1 3.09636 5.91666 5.82579 
89 1 7.71993 3.6319 3.78074 
90 1 9.81082 6.5016 3.61854 
91 1 10.2955 4.04168 4.97476 
92 1 8.09987 5.61717 5.62837 
93 1 12.6295 3.01423 2.97781 
94 1 14.7117 5.24731 3.76307 
95 1 15.1472 3.86487 5.80571 
96 1 12.1134 5.95469 5.77321 
97 1 -0.0280691 8.54647 3.988 
98 1 1.37912 10.7292 3.15233 
99 1 1.20557 8.24621 6.11174 
100 1 -0.760431 10.5055 5.94837 
101 1 3.50928 8.71781 3.89487 
102 1 5.65998 10.3534 3.9861 
103 1 5.57737 8.46129 5.74376 
104 1 3.43554 10.6939 5.75874 
105 1 7.65905 8.42366 3.67757 
106 1 10.026 10.7356 3.5551 
107 1 10.0648 8.35508 5.45387 
108 1 7.99384 10.7897 5.74508 
109 1 12.1377 8.63633 3.83287 
110 1 14.3632 10.3578 3.80017 
111 2 15.0415 7.66403 5.57139 
112 1 13.2733 10.2071 6.30619 
113 1 -0.994355 12.0949 3.61629 
114 1 1.8189 14.1012 3.92418 
115 1 1.25244 12.2223 6.08902 
116 1 -0.317758 14.5137 5.78199 
117 1 3.56751 12.0617 3.46327 
118 1 5.98287 15.1362 3.6303 
119 1 5.77918 12.7828 5.47247 
120 1 3.93122 15.0765 5.19093 
121 1 8.07006 12.8085 4.22657 
122 1 10.2103 15.1558 3.21602 
123 1 10.5894 12.9564 5.65177 
124 1 8.05198 15.2471 5.68448 
125 1 12.5765 13.1697 3.34154 
126 1 14.5659 14.8811 3.36435 
127 1 14.5595 13.1692 5.17318 
128 1 12.4598 14.8102 5.65695 
129 1 -0.410022 0.00554119 7.66263 
130 1 2.04522 1.42284 7.99316 
131 1 1.97001 -0.624673 10.1714 
132 1 -0.665612 1.51632 10.1641 
133 1 3.67169 -1.28721 8.08054 
134 1 5.54851 1.61683 8.13527 
135 1 5.67663 -0.349657 10.5335 
136 1 4.12761 1.96509 10.1779 
137 1 9.00878 -0.821435 8.75835 
138 1 10.363 1.65717 9.02224 
139 1 10.8594 -0.49258 11.1108 
140 1 8.34792 1.56508 10.5058 
141 1 12.3 -0.433448 7.90794 
142 1 14.9752 1.77825 7.6162 
143 1 14.9015 -0.486121 9.76769 
144 1 13.1246 1.53628 10.725 
145 1 -0.454128 3.38912 8.20174 
146 1 1.78718 5.94257 8.4223 
147 1 1.60143 3.10126 10.4159 
148 1 -0.682646 5.90908 10.3502 
149 1 3.68494 3.92665 8.2338 
150 1 5.56084 6.01224 7.32503 
151 1 5.76687 4.06182 10.3647 
152 1 3.79897 6.01246 10.2515 
153 1 7.61331 3.9186 8.44145 
154 1 9.78841 5.81485 7.89789 
155 1 9.83618 4.17085 10.31 
156 1 8.00261 6.82646 10.0072 
157 2 12.5901 3.53601 7.94418 
158 1 14.7369 5.7859 8.31182 
159 1 14.8789 3.63001 10.4794 
160 1 13.0258 5.82084 10.5949 
161 1 -0.655596 8.1512 8.28107 
162 1 1.47707 10.273 8.18248 
163 1 1.22972 8.04254 10.1188 
164 1 -0.408636 10.8518 9.90951 
165 1 3.76176 8.66477 7.89821 
166 1 5.69422 10.9111 7.49836 
167 1 5.59795 8.28675 9.78341 
168 1 3.12782 10.0428 9.95348 
169 1 7.94671 7.88262 7.48382 
170 1 10.5911 10.8709 7.11277 
171 1 10.7398 7.70594 10.8703 
172 2 8.43254 10.3725 9.844 
173 2 12.2172 7.87063 8.25732 
174 1 14.8665 10.3545 8.56925 
175 1 14.9037 8.0892 10.4476 
176 1 12.1716 10.4713 9.62185 
177 1 -1.20857 13.0379 8.22349 
178 1 1.22491 14.5708 7.74346 
179 1 1.71956 12.3641 10.1013 
180 1 0.0532992 14.9181 10.3553 
181 1 3.36886 13.0529 7.73399 
182 1 6.00771 14.853 8.06962 
183 1 5.55556 12.5174 9.78929 
184 1 3.95596 14.8565 10.0667 
185 1 8.29446 12.7016 7.89884 
186 1 10.6825 14.6515 8.19095 
187 1 10.5476 12.6793 10.3197 
188 2 7.90239 14.6277 10.6679 
189 1 13.3548 12.5523 7.84705 
190 1 14.6619 15.1093 7.48628 
191 1 14.621 12.6812 10.1335 
192 1 12.5828 14.9483 10.3216 
193 1 -0.609427 -0.509566 12.5269 
194 1 1.05822 1.40569 12.3631 
195 1 0.849543 -0.122596 14.6043 
196 1 -1.17144 1.75082 15.1936 
197 1 3.60806 -0.222964 12.4104 
198 1 5.88546 1.64366 12.3216 
199 1 5.9795 -0.470549 14.8883 
200 1 3.3219 1.72492 14.4815 
201 1 7.89936 -0.936673 13.0242 
202 2 10.4338 1.74108 12.5938 
203 1 10.5848 -0.932881 14.0155 
204 1 7.81246 2.19233 14.4784 
205 1 12.6427 -1.44501 12.7838 
206 1 14.9907 1.80264 12.4296 
207 1 14.4861 -0.0236579 14.2555 
208 1 12.1878 1.35203 15.3894 
209 1 -0.690824 3.83802 12.6668 
210 1 2.13176 5.83881 12.5967 
211 1 1.30887 3.35472 14.3945 
212 1 -0.690285 5.92549 14.4588 
213 1 3.40811 3.19981 12.4062 
214 2 5.5973 6.51356 12.7411 
215 1 5.75839 3.88092 14.644 
216 1 3.39179 5.25561 14.6818 
217 1 7.89121 3.92801 12.0424 
218 1 10.6106 5.14567 12.731 
219 1 9.87152 4.035 15.4303 
220 1 8.35347 5.79335 14.7416 
221 1 12.5396 3.36668 12.9254 
222 1 14.6551 5.85646 12.7519 
223 1 14.6502 3.70356 14.9363 
224 1 12.3016 6.01938 15.3593 
225 1 -0.2366 7.70964 12.2411 
226 1 0.951382 10.4763 12.8395 
227 1 1.96271 7.94716 15.0232 
228 2 -0.760838 9.49331 15.007 
229 1 2.78617 8.5529 12.2423 
230 1 5.92264 9.92431 12.3382 
231 1 5.45551 8.87257 14.7444 
232 1 3.52651 10.2086 13.9149 
233 1 8.59885 8.27639 12.8735 
234 2 11.0987 10.8988 12.6502 
235 1 10.9269 9.16231 15.2803 
236 1 8.2623 10.3957 14.8939 
237 1 12.5267 7.61638 12.7962 
238 2 14.7057 10.5728 12.184 
239 1 13.804 8.46654 15.0607 
240 1 13.1079 11.4122 15.053 
241 1 -0.173954 13.0156 12.4301 
242 1 2.19681 14.7011 12.3202 
243 2 2.65001 12.8576 14.628 
244 1 0.109833 14.3768 14.7274 
245 1 3.84932 11.6551 11.9142 
246 1 5.50776 14.9144 12.9722 
247 1 5.57699 12.3281 14.1422 
248 1 3.32543 16.1196 14.5413 
249 1 7.91111 12.2236 12.3271 
250 1 10.3329 13.8713 12.4013 
251 1 10.4649 12.114 14.8965 
252 1 8.39581 14.1708 14.5478 
253 1 13.2393 13.2103 12.7707 
254 1 15.0894 15.0935 12.9261 
255 1 15.4218 12.4131 14.6045 
256 1 13.801 14.5679 15.0794 
ITEM: TIMESTEP
300
ITEM: NUMBER OF ATOMS
256
ITEM: BOX BOUNDS pp pp pp
0.0000000000000000e+00 1.7274466334216921e+01
0.0000000000000000e+00 1.7274466334216921e+01
0.0000000000000000e+00 1.7274466334216921e+01
ITEM: ATOMS id type xu yu zu 
1 1 -1.01696 0.406661 -0.451241 
2 1 1.36627 2.37083 -0.246709 
3 1 0.742607 -0.682472 0.93822 
4 1 -0.621935 1.73407 2.23052 
5 2 3.74701 -0.371082 -0.242194 
6 1 6.84018 1.62948 -0.58659 
7 1 6.31101 -0.714454 1.05132 
8 1 4.16933 1.59693 2.43294 
9 1 8.16228 -1.02428 -1.06694 
10 1 9.70565 1.55361 -0.997942 
11 1 10.1227 -1.25103 1.02837 
12 1 8.32399 1.8869 1.54993 
13 1 13.1013 -0.53117 -0.505762 
14 1 13.9386 1.85961 -0.129202 
15 1 15.0716 -0.536006 2.05712 
16 1 11.4753 1.0247 0.863254 
17 1 -0.584714 4.24935 -0.92389 
18 1 1.75034 5.17485 -0.491926 
19 1 1.8117 3.87363 1.66236 
20 1 -0.284013 6.35824 2.54742 
21 1 4.14604 3.06482 -0.148971 
22 1 5.78618 5.99808 -0.63537 
23 1 6.36479 3.46476 1.83362 
24 1 4.05225 5.77236 1.58069 
25 1 8.31286 3.95268 -0.723044 
26 1 9.93829 6.47883 0.0956028 
27 1 9.98962 4.30244 1.94857 
28 1 6.96014 5.92965 2.07466 
29 1 12.1063 3.8421 0.024239 
30 1 13.656 6.18068 -1.14207 
31 1 15.1789 4.56684 1.24702 
32 1 12.4353 5.7524 1.76884 
33 1 -0.894554 7.18729 -0.492708 
34 1 1.84549 10.1197 -0.592771 
35 2 1.61827 8.07594 1.32817 
36 1 -0.627116 10.1226 1.62522 
37 1 4.31504 8.43305 -1.24052 
38 1 6.42945 10.6265 -0.351332 
39 1 6.13177 8.25328 1.56269 
40 1 4.14439 9.78901 1.48177 
41 1 7.92723 7.87177 -0.564989 
42 1 10.4779 10.7185 0.0824344 
43 1 9.39053 8.43292 1.79465 
44 1 8.18409 10.7246 1.80573 
45 1 11.8958 8.05811 0.562701 
46 1 13.9675 9.83193 -0.263835 
47 1 14.7204 7.7543 1.87001 
48 1 12.2654 10.2786 1.94818 
49 1 -0.767296 12.3422 -0.0500957 
50 1 1.20474 14.5275 -0.536319 
51 1 1.78885 11.5344 2.06104 
52 1 -0.0597068 14.2044 1.81895 
53 1 3.73113 12.5436 -0.103821 
54 1 5.58056 14.0607 -1.20572 
55 1 6.301 12.4759 1.91781 
56 1 4.21743 14.3111 1.66816 
57 1 8.15897 12.5522 -0.224401 
58 1 11.231 15.4257 -1.04391 
59 1 10.1534 12.9882 1.6833 
60 1 8.02695 14.7646 1.34923 
61 1 12.7045 12.7124 0.29544 
62 1 15.0153 14.6855 0.21964 
63 1 14.4027 11.9529 2.05846 
64 1 12.6118 15.0798 1.77927 
65 1 -0.158308 -0.487762 3.70539 
66 1 1.86109 1.32471 4.30384 
67 1 1.68617 -0.741645 6.1778 
68 1 -0.999254 1.75874 5.40297 
69 1 3.23277 -0.789407 3.4284 
70 1 6.22123 1.6577 4.24048 
71 1 6.03239 -0.246767 6.55451 
72 1 3.94438 1.40302 6.2375 
73 1 7.82691 -0.402286 3.48691 
74 1 10.3138 1.39395 3.14545 
75 1 10.117 -0.83172 5.96037 
76 2 8.45111 1.70233 6.18963 
77 1 12.8729 0.228184 3.69271 
78 1 13.633 2.77856 5.16841 
79 1 14.7342 -0.871358 5.22189 
80 1 11.6891 1.2738 6.56752 
81 1 -0.274092 4.32655 3.95074 
82 1 1.99037 6.10146 3.81252 
83 1 1.61793 3.34633 6.03647 
84 1 0.056151 6.24223 6.19752 
85 1 3.71601 3.59214 3.94006 
86 1 5.26648 5.89681 4.3091 
87 1 5.93182 3.63832 5.97984 
88 1 3.34147 5.53657 6.34085 
89 1 7.90396 3.89794 4.01158 
90 1 9.47649 6.24974 4.04998 
91 1 10.7127 3.58325 5.15962 
92 1 7.85097 5.48611 6.37592 
93 1 12.2515 3.41472 2.68819 
94 1 14.3712 5.05746 3.6539 
95 1 15.401 4.15347 6.37194 
96 1 11.807 6.29129 5.49418 
97 1 -0.422268 8.15256 3.82216 
98 1 1.58323 10.075 4.48935 
99 1 1.79803 8.28548 6.8948 
100 1 -1.15491 10.3095 6.14123 
101 1 3.1139 8.15294 4.14526 
102 1 6.0334 10.5975 3.74323 
103 1 5.80991 8.34249 5.33436 
104 1 3.40274 10.1823 6.2574 
105 1 7.7904 8.57138 3.79217 
106 1 10.2414 10.7273 4.48842 
107 1 10.0101 8.33875 6.00435 
108 1 7.93248 10.4112 6.32868 
109 1 11.9646 8.08566 3.79689 
110 1 14.9058 10.1406 3.70594 
111 2 14.5525 7.64652 5.72061 
112 1 12.4469 9.98923 5.764 
113 1 -0.0958843 12.2591 3.98109 
114 1 2.1294 14.1296 3.60299 
115 1 1.50092 12.3955 6.18966 
116 1 -0.333666 14.5107 5.79054 
117 1 3.83195 11.8944 3.71869 
118 1 6.30294 14.5723 3.5041 
119 1 5.84158 12.228 5.96124 
120 1 4.41031 14.4976 5.32355 
121 1 8.09897 12.5984 3.68523 
122 1 10.5033 15.3978 3.5547 
123 1 9.91257 13.4377 5.33623 
124 1 7.71967 15.0139 5.90873 
125 1 12.3796 12.4781 3.90389 
126 1 14.8363 14.0043 3.40171 
127 1 14.2278 12.2228 5.67699 
128 1 12.5093 14.9525 5.36384 
129 1 -0.121447 -0.331982 8.15123 
130 1 1.80888 1.66104 7.70404 
131 1 2.00364 -0.289091 9.89886 
132 1 -0.762224 1.4928 10.1814 
133 1 3.60201 -1.40433 7.93147 
134 1 5.94483 1.82863 8.18028 
135 1 6.1767 -0.171583 9.90492 
136 1 3.76711 1.94259 9.73578 
137 1 8.33065 -0.367326 8.23943 
138 1 10.1221 1.68787 8.80816 
139 1 10.2823 -1.19038 10.7332 
140 1 7.85021 1.9393 10.0909 
141 1 12.1448 -0.554481 8.6364 
142 1 15.0113 1.27261 7.91812 
143 1 14.3088 -0.758053 10.1682 
144 1 12.8615 1.60894 10.2305 
145 1 -0.367865 3.62009 8.51159 
146 1 1.83953 6.07145 8.60264 
147 1 1.68394 3.88929 10.402 
148 1 -0.44595 6.01146 10.3786 
149 1 4.13525 3.86905 8.14134 
150 1 5.66421 6.02413 7.82693 
151 1 5.90715 4.48602 10.2046 
152 1 3.88224 6.41902 9.84659 
153 1 7.79698 4.00164 8.38972 
154 1 10.1621 5.65205 7.54776 
155 1 10.0305 4.02803 10.1441 
156 1 8.33248 6.64567 10.6899 
157 2 12.5346 3.70269 7.90151 
158 1 14.6908 6.03653 8.09954 
159 1 14.4917 3.99715 10.2051 
160 1 11.8499 5.80362 10.5 
161 1 -0.774059 7.96433 8.29113 
162 1 0.973176 10.5144 7.93877 
163 1 1.49729 8.2038 9.97478 
164 1 -0.133099 11.2442 10.096 
165 1 4.06766 8.19756 8.06735 
166 1 5.93543 10.07 7.95177 
167 1 6.14481 7.801 9.77029 
168 1 3.91799 9.87858 10.1868 
169 1 7.66424 7.85031 7.76465 
170 1 10.3401 10.8457 7.61813 
171 1 10.732 8.10664 10.8693 
172 2 8.5658 10.018 9.65763 
173 2 12.2138 8.13714 8.16993 
174 1 14.5838 10.1975 8.4442 
175 1 14.0688 7.18991 10.1111 
176 1 12.7246 10.784 9.99307 
177 1 -0.825316 12.7876 7.5896 
178 1 1.22399 14.6362 8.00322 
179 1 2.11579 12.8743 10.2035 
180 1 -0.47515 14.4801 9.79048 
181 1 3.56594 12.588 7.69828 
182 1 6.56066 14.8937 8.08225 
183 1 5.65514 12.1172 9.63265 
184 1 4.29866 14.6258 10.1398 
185 1 8.51428 12.9243 7.63182 
186 1 11.0682 14.4286 7.54611 
187 1 10.2107 12.5064 9.79757 
188 2 7.66255 14.2968 10.9109 
189 1 12.6412 12.1457 8.14253 
190 1 14.1601 14.6106 7.92721 
191 1 14.8547 12.9164 9.71979 
192 1 12.2471 14.3395 10.2996 