ITEM: TIMESTEP
0
ITEM: NUMBER OF ATOMS
256
ITEM: BOX BOUNDS pp pp pp
0.0000000000000000e+00 1.7274466334216921e+01
0.0000000000000000e+00 1.7274466334216921e+01
0.0000000000000000e+00 1.7274466334216921e+01
ITEM: ATOMS id type xu yu zu 
1 1 0 0 0 
2 1 2.02046 2.02046 0 
3 1 2.02046 0 2.02046 
4 1 0 2.02046 2.02046 
5 2 4.04093 0 0 
6 1 6.06139 2.02046 0 
7 1 6.06139 0 2.02046 
8 1 4.04093 2.02046 2.02046 
9 1 8.08185 0 0 
10 1 10.1023 2.02046 0 
11 1 10.1023 0 2.02046 
12 1 8.08185 2.02046 2.02046 
13 1 12.1228 0 0 
14 1 14.1432 2.02046 0 
15 1 14.1432 0 2.02046 
16 1 12.1228 2.02046 2.02046 
17 1 0 4.04093 0 
18 1 2.02046 6.06139 0 
19 1 2.02046 4.04093 2.02046 
20 1 0 6.06139 2.02046 
21 1 4.04093 4.04093 0 
22 1 6.06139 6.06139 0 
23 1 6.06139 4.04093 2.02046 
24 1 4.04093 6.06139 2.02046 
25 1 8.08185 4.04093 0 
26 1 10.1023 6.06139 0 
27 1 10.1023 4.04093 2.02046 
28 1 8.08185 6.06139 2.02046 
29 1 12.1228 4.04093 0 
30 1 14.1432 6.06139 0 
31 1 14.1432 4.04093 2.02046 
32 1 12.1228 6.06139 2.02046 
33 1 0 8.08185 0 
34 1 2.02046 10.1023 0 
35 2 2.02046 8.08185 2.02046 
36 1 0 10.1023 2.02046 
37 1 4.04093 8.08185 0 
38 1 6.06139 10.1023 0 
39 1 6.06139 8.08185 2.02046 
40 1 4.04093 10.1023 2.02046 
41 1 8.08185 8.08185 0 
42 1 10.1023 10.1023 0 
43 1 10.1023 8.08185 2.02046 
44 1 8.08185 10.1023 2.02046 
45 1 12.1228 8.08185 0 
46 1 14.1432 10.1023 0 
47 1 14.1432 8.08185 2.02046 
48 1 12.1228 10.1023 2.02046 
49 1 0 12.1228 0 
50 1 2.02046 14.1432 0 
51 1 2.02046 12.1228 2.02046 
52 1 0 14.1432 2.02046 
53 1 4.04093 12.1228 0 
54 1 6.06139 14.1432 0 
55 1 6.06139 12.1228 2.02046 
56 1 4.04093 14.1432 2.02046 
57 1 8.08185 12.1228 0 
58 1 10.1023 14.1432 0 
59 1 10.1023 12.1228 2.02046 
60 1 8.08185 14.1432 2.02046 
61 1 12.1228 12.1228 0 
62 1 14.1432 14.1432 0 
63 1 14.1432 12.1228 2.02046 
64 1 12.1228 14.1432 2.02046 
65 1 0 0 4.04093 
66 1 2.02046 2.02046 4.04093 
67 1 2.02046 0 6.06139 
68 1 0 2.02046 6.06139 
69 1 4.04093 0 4.04093 
70 1 6.06139 2.02046 4.04093 
71 1 6.06139 0 6.06139 
72 1 4.04093 2.02046 6.06139 
73 1 8.08185 0 4.04093 
74 1 10.1023 2.02046 4.04093 
75 1 10.1023 0 6.06139 
76 2 8.08185 2.02046 6.06139 
77 1 12.1228 0 4.04093 
78 1 14.1432 2.02046 4.04093 
79 1 14.1432 0 6.06139 
80 1 12.1228 2.02046 6.06139 
81 1 0 4.04093 4.04093 
82 1 2.02046 6.06139 4.04093 
83 1 2.02046 4.04093 6.06139 
84 1 0 6.06139 6.06139 
85 1 4.04093 4.04093 4.04093 
86 1 6.06139 6.06139 4.04093 
87 1 6.06139 4.04093 6.06139 
88 1 4.04093 6.06139 6.06139 
89 1 8.08185 4.04093 4.04093 
90 1 10.1023 6.06139 4.04093 
91 1 10.1023 4.04093 6.06139 
92 1 8.08185 6.06139 6.06139 
93 1 12.1228 4.04093 4.04093 
94 1 14.1432 6.06139 4.04093 
95 1 14.1432 4.04093 6.06139 
96 1 12.1228 6.06139 6.06139 
97 1 0 8.08185 4.04093 
98 1 2.02046 10.1023 4.04093 
99 1 2.02046 8.08185 6.06139 
100 1 0 10.1023 6.06139 
101 1 4.04093 8.08185 4.04093 
102 1 6.06139 10.1023 4.04093 
103 1 6.06139 8.08185 6.06139 
104 1 4.04093 10.1023 6.06139 
105 1 8.08185 8.08185 4.04093 
106 1 10.1023 10.1023 4.04093 
107 1 10.1023 8.08185 6.06139 
108 1 8.08185 10.1023 6.06139 
109 1 12.1228 8.08185 4.04093 
110 1 14.1432 10.1023 4.04093 
111 2 14.1432 8.08185 6.06139 
112 1 12.1228 10.1023 6.06139 
113 1 0 12.1228 4.04093 
114 1 2.02046 14.1432 4.04093 
115 1 2.02046 12.1228 6.06139 
116 1 0 14.1432 6.06139 
117 1 4.04093 12.1228 4.04093 
118 1 6.06139 14.1432 4.04093 
119 1 6.06139 12.1228 6.06139 
120 1 4.04093 14.1432 6.06139 
121 1 8.08185 12.1228 4.04093 
122 1 10.1023 14.1432 4.04093 
123 1 10.1023 12.1228 6.06139 
124 1 8.08185 14.1432 6.06139 
125 1 12.1228 12.1228 4.04093 
126 1 14.1432 14.1432 4.04093 
127 1 14.1432 12.1228 6.06139 
128 1 12.1228 14.1432 6.06139 
129 1 0 0 8.08185 
130 1 2.02046 2.02046 8.08185 
131 1 2.02046 0 10.1023 
132 1 0 2.02046 10.1023 
133 1 4.04093 0 8.08185 
134 1 6.06139 2.02046 8.08185 
135 1 6.06139 0 10.1023 
136 1 4.04093 2.02046 10.1023 
137 1 8.08185 0 8.08185 
138 1 10.1023 2.02046 8.08185 
139 1 10.1023 0 10.1023 
140 1 8.08185 2.02046 10.1023 
141 1 12.1228 0 8.08185 
142 1 14.1432 2.02046 8.08185 
143 1 14.1432 0 10.1023 
144 1 12.1228 2.02046 10.1023 
145 1 0 4.04093 8.08185 
146 1 2.02046 6.06139 8.08185 
147 1 2.02046 4.04093 10.1023 
148 1 0 6.06139 10.1023 
149 1 4.04093 4.04093 8.08185 
150 1 6.06139 6.06139 8.08185 
151 1 6.06139 4.04093 10.1023 
152 1 4.04093 6.06139 10.1023 
153 1 8.08185 4.04093 8.08185 
154 1 10.1023 6.06139 8.08185 
155 1 10.1023 4.04093 10.1023 
156 1 8.08185 6.06139 10.1023 
157 2 12.1228 4.04093 8.08185 
158 1 14.1432 6.06139 8.08185 
159 1 14.1432 4.04093 10.1023 
160 1 12.1228 6.06139 10.1023 
161 1 0 8.08185 8.08185 
162 1 2.02046 10.1023 8.08185 
163 1 2.02046 8.08185 10.1023 
164 1 0 10.1023 10.1023 
165 1 4.04093 8.08185 8.08185 
166 1 6.06139 10.1023 8.08185 
167 1 6.06139 8.08185 10.1023 
168 1 4.04093 10.1023 10.1023 
169 1 8.08185 8.08185 8.08185 
170 1 10.1023 10.1023 8.08185 
171 1 10.1023 8.08185 10.1023 
172 2 8.08185 10.1023 10.1023 
173 2 12.1228 8.08185 8.08185 
174 1 14.1432 10.1023 8.08185 
175 1 14.1432 8.08185 10.1023 
176 1 12.1228 10.1023 10.1023 
177 1 0 12.1228 8.08185 
178 1 2.02046 14.1432 8.08185 
179 1 2.02046 12.1228 10.1023 
180 1 0 14.1432 10.1023 
181 1 4.04093 12.1228 8.08185 
182 1 6.06139 14.1432 8.08185 
183 1 6.06139 12.1228 10.1023 
184 1 4.04093 14.1432 10.1023 
185 1 8.08185 12.1228 8.08185 
186 1 10.1023 14.1432 8.08185 
187 1 10.1023 12.1228 10.1023 
188 2 8.08185 14.1432 10.1023 
189 1 12.1228 12.1228 8.08185 
190 1 14.1432 14.1432 8.08185 
191 1 14.1432 12.1228 10.1023 
192 1 12.1228 14.1432 10.1023 
193 1 0 0 12.1228 
194 1 2.02046 2.02046 12.1228 
195 1 2.02046 0 14.1432 
196 1 0 2.02046 14.1432 
197 1 4.04093 0 12.1228 
198 1 6.06139 2.02046 12.1228 
199 1 6.06139 0 14.1432 
200 1 4.04093 2.02046 14.1432 
201 1 8.08185 0 12.1228 
202 2 10.1023 2.02046 12.1228 
203 1 10.1023 0 14.1432 
204 1 8.08185 2.02046 14.1432 
205 1 12.1228 0 12.1228 
206 1 14.1432 2.02046 12.1228 
207 1 14.1432 0 14.1432 
208 1 12.1228 2.02046 14.1432 
209 1 0 4.04093 12.1228 
210 1 2.02046 6.06139 12.1228 
211 1 2.02046 4.04093 14.1432 
212 1 0 6.06139 14.1432 
213 1 4.04093 4.04093 12.1228 
214 2 6.06139 6.06139 12.1228 
215 1 6.06139 4.04093 14.1432 
216 1 4.04093 6.06139 14.1432 
217 1 8.08185 4.04093 12.1228 
218 1 10.1023 6.06139 12.1228 
219 1 10.1023 4.04093 14.1432 
220 1 8.08185 6.06139 14.1432 
221 1 12.1228 4.04093 12.1228 
222 1 14.1432 6.06139 12.1228 
223 1 14.1432 4.04093 14.1432 
224 1 12.1228 6.06139 14.1432 
225 1 0 8.08185 12.1228 
226 1 2.02046 10.1023 12.1228 
227 1 2.02046 8.08185 14.1432 
228 2 0 10.1023 14.1432 
229 1 4.04093 8.08185 12.1228 
230 1 6.06139 10.1023 12.1228 
231 1 6.06139 8.08185 14.1432 
232 1 4.04093 10.1023 14.1432 
233 1 8.08185 8.08185 12.1228 
234 2 10.1023 10.1023 12.1228 
235 1 10.1023 8.08185 14.1432 
236 1 8.08185 10.1023 14.1432 
237 1 12.1228 8.08185 12.1228 
238 2 14.1432 10.1023 12.1228 
239 1 14.1432 8.08185 14.1432 
240 1 12.1228 10.1023 14.1432 
241 1 0 12.1228 12.1228 
242 1 2.02046 14.1432 12.1228 
243 2 2.02046 12.1228 14.1432 
244 1 0 14.1432 14.1432 
245 1 4.04093 12.1228 12.1228 
246 1 6.06139 14.1432 12.1228 
247 1 6.06139 12.1228 14.1432 
248 1 4.04093 14.1432 14.1432 
249 1 8.08185 12.1228 12.1228 
250 1 10.1023 14.1432 12.1228 
251 1 10.1023 12.1228 14.1432 
252 1 8.08185 14.1432 14.1432 
253 1 12.1228 12.1228 12.1228 
254 1 14.1432 14.1432 12.1228 
255 1 14.1432 12.1228 14.1432 
256 1 12.1228 14.1432 14.1432 
ITEM: TIMESTEP
100
ITEM: NUMBER OF ATOMS
256
ITEM: BOX BOUNDS pp pp pp
0.0000000000000000e+00 1.7274466334216921e+01
0.0000000000000000e+00 1.7274466334216921e+01
0.0000000000000000e+00 1.7274466334216921e+01
ITEM: ATOMS id type xu yu zu 
1 1 0.169709 0.963111 0.0206458 
2 1 2.12034 2.86028 -0.0705112 
3 1 1.92733 -0.308167 2.62343 
4 1 -0.163307 2.14649 2.40315 
5 2 3.9153 -0.508309 -0.230693 
6 1 6.7044 1.92372 -0.433825 
7 1 5.64218 -0.276725 2.10671 
8 1 3.67171 1.96046 1.9408 
9 1 7.99589 -0.702414 0.322538 
10 1 9.72939 1.36407 -0.0743412 
11 1 10.4812 -0.853253 1.84469 
12 1 8.12224 1.84828 2.18055 
13 1 12.3617 0.447861 -0.931199 
14 1 14.4474 1.70721 -0.754721 
15 1 14.3356 -0.0386878 1.53074 
16 1 12.189 2.02529 1.36307 
17 1 -0.792826 3.50865 -0.110731 
18 1 1.46614 5.46047 -1.10356 
19 1 1.84602 4.65836 1.86632 
20 1 -1.24344 5.73107 1.68614 
21 1 4.40077 4.2181 -0.316574 
22 1 5.99533 6.10695 -0.57313 
23 1 6.3032 3.61936 1.61494 
24 1 4.66387 5.76531 1.76085 
25 1 8.42016 4.09778 -0.698237 
26 1 10.1486 6.27577 -0.403362 
27 1 10.0701 3.97518 1.57606 
28 1 7.74699 6.00232 1.4539 
29 1 11.8364 4.07213 -0.48905 
30 1 14.2522 6.12906 -0.0788033 
31 1 14.4414 3.55888 1.54526 
32 1 12.1887 6.46741 1.65689 
33 1 -0.872159 7.65087 -0.569898 
34 1 2.09128 9.96788 -0.919965 
35 2 1.85908 7.70561 1.78618 
36 1 -0.543165 10.2282 1.20913 
37 1 4.15837 8.0317 -0.527104 
38 1 6.11995 10.3425 -0.545067 
39 1 5.82431 8.21175 1.70402 
40 1 4.04808 9.92622 1.91024 
41 1 8.08378 8.42872 -0.102572 
42 1 9.99164 10.3216 -0.117832 
43 1 9.97224 8.44897 1.95902 
44 1 7.76831 10.4659 2.15989 
45 1 12.137 8.24794 -0.38585 
46 1 14.6835 9.40616 -0.244381 
47 1 14.4505 8.14774 2.2365 
48 1 12.6043 10.1928 1.90968 
49 1 0.201626 12.129 -0.958232 
50 1 1.98978 14.4472 -0.714272 
51 1 1.80393 11.7515 1.57997 
52 1 0.371106 14.0918 1.96276 
53 1 4.03321 12.7064 -0.512719 
54 1 5.90905 14.6896 -0.0795076 
55 1 5.73393 12.4911 2.05789 
56 1 3.47302 14.5982 1.89006 
57 1 7.51528 12.348 0.0612103 
58 1 9.44804 14.1735 -0.50097 
59 1 9.5901 12.5724 1.81593 
60 1 7.94567 14.4653 1.90788 
61 1 12.2219 11.9491 -0.11749 
62 1 13.1266 14.7669 -0.369011 
63 1 14.6765 11.8784 1.25673 
64 1 11.5315 14.5014 1.73525 
65 1 -0.713604 -0.825199 4.21358 
66 1 1.92095 1.9907 4.16649 
67 1 1.9483 -0.25584 5.85505 
68 1 -0.934421 1.56251 5.18252 
69 1 4.10214 -1.24847 3.95129 
70 1 5.94556 1.48496 3.98566 
71 1 6.21497 -0.739465 5.53007 
72 1 4.01809 1.67832 6.19811 
73 1 8.2675 -0.628196 4.10803 
74 1 10.5892 1.55064 3.8454 
75 1 10.2807 -0.693235 5.6202 
76 2 8.19968 1.7966 5.89049 
77 1 12.4741 -0.500805 3.60855 
78 1 14.1867 1.34524 3.88803 
79 1 15.1124 -0.947502 6.44715 
80 1 11.8117 1.31852 6.28311 
81 1 -0.126713 4.05 4.30322 
82 1 1.83304 6.117 4.40002 
83 1 1.66144 3.83465 6.11592 
84 1 -0.68666 5.98629 5.98469 
85 1 3.99727 4.00208 4.16499 
86 1 6.0342 6.21625 3.83152 
87 1 5.94987 3.98978 6.06803 
88 1 4.05015 6.17562 6.12345 
89 1 7.90806 4.21045 3.83063 
90 1 9.99356 6.40437 3.89816 
91 1 10.0394 4.15677 5.44208 
92 1 7.82902 6.00434 6.00943 
93 1 12.2347 4.06491 3.57843 
94 1 14.5566 5.35931 3.81994 
95 1 14.6927 3.83205 5.69083 
96 1 12.4061 5.96049 5.60319 
97 1 -0.406618 8.25879 3.45657 
98 1 1.60547 10.0662 4.11858 
99 1 2.00779 8.22341 5.98361 
100 1 -0.243422 10.3719 6.30323 
101 1 4.13834 8.31836 4.04539 
102 1 5.88929 10.3942 4.1472 
103 1 5.87662 8.19789 6.16098 
104 1 3.78573 10.3657 5.92316 
105 1 7.91234 8.34901 4.15276 
106 1 10.0759 10.4846 3.83618 
107 1 10.2287 8.4828 5.86063 
108 1 7.92602 10.314 6.25582 
109 1 12.2685 8.42918 4.08613 
110 1 14.9056 10.6392 3.76704 
111 2 15.103 8.10418 6.10213 
112 1 12.7317 10.5051 5.67501 
113 1 -0.384379 12.0111 3.78897 
114 1 1.75094 15.0086 4.34661 
115 1 1.66134 12.4913 6.23848 
116 1 -0.345468 14.6024 5.93948 
117 1 3.78508 12.4952 3.87734 
118 1 6.08387 14.5297 3.94161 
119 1 5.72976 12.4466 5.90049 
120 1 3.6797 14.3634 5.90474 
121 1 8.00373 12.4485 4.28263 
122 1 9.85729 14.6433 3.99716 
123 1 10.4334 12.8006 5.8255 
124 1 8.4229 14.6474 6.7775 
125 1 12.7433 12.7315 3.8664 
126 1 14.9663 14.7236 4.14823 
127 1 14.6606 12.5402 5.78249 
128 1 12.722 14.7458 5.84944 
129 1 -0.119221 -0.229092 7.81375 
130 1 1.73706 1.94148 7.95854 
131 1 1.75516 0.0808074 10.1417 
132 1 -0.267278 2.37885 10.3855 
133 1 3.91606 -0.641032 8.08232 
134 1 5.75342 1.66924 8.04584 
135 1 5.98743 -0.741056 10.2086 
136 1 3.95571 1.41728 10.1139 
137 1 7.65646 -0.193866 8.26553 
138 1 9.96132 1.40246 8.9857 
139 1 10.2289 -0.843253 10.2196 
140 1 7.30227 1.45222 10.0281 
141 1 12.1458 -0.670025 7.93859 
142 1 15.1142 1.99402 7.77718 
143 1 14.6936 -0.679691 9.27388 
144 1 12.7877 1.06834 9.62474 
145 1 -0.369153 3.86754 8.06799 
146 1 1.85417 6.12367 7.91028 
147 1 1.72457 4.07481 10.1148 
148 1 -0.502459 5.80321 9.97613 
149 1 3.91864 4.08282 8.13141 
150 1 5.94094 6.12751 8.17575 
151 1 6.07593 3.9489 10.0165 
152 1 3.82602 6.01046 10.2198 
153 1 8.12572 4.06463 7.81434 
154 1 10.1457 6.219 7.62041 
155 1 9.60465 4.16117 10.1311 
156 1 7.74744 6.33113 9.91817 
157 2 11.9539 3.74301 8.10895 
158 1 14.9633 5.61282 8.33453 
159 1 14.9834 3.7473 10.1275 
160 1 12.3261 6.11148 9.91455 
161 1 -0.186323 7.87945 8.26057 
162 1 1.96291 10.615 8.06588 
163 1 1.82175 8.09033 10.1325 
164 1 -0.386794 9.78472 9.81773 
165 1 3.73766 8.17909 8.04118 
166 1 5.72279 10.324 7.8789 
167 1 5.63922 8.05786 10.0744 
168 1 4.3881 10.2773 10.2056 
169 1 7.78278 8.20265 7.74767 
170 1 10.1771 10.9317 7.92559 
171 1 9.68585 7.81099 10.2545 
172 2 7.75826 10.1121 9.85307 
173 2 12.0281 8.4399 8.07743 
174 1 15.0106 10.4792 8.51825 
175 1 14.8655 7.3948 10.4758 
176 1 12.6405 10.8416 10.0938 
177 1 -0.807165 13.0033 7.91203 
178 1 2.00254 14.9989 7.84288 
179 1 1.95787 12.2778 10.3022 
180 1 0.226538 14.6285 9.59586 
181 1 3.90757 12.5036 7.93607 
182 1 5.43312 14.6243 8.04455 
183 1 6.03546 12.7005 10.1024 
184 1 3.75874 15.0022 10.3067 
185 1 7.67275 12.6112 7.87299 
186 1 11.0361 14.3646 7.90166 
187 1 10.6234 12.7567 10.2435 
188 2 8.04441 14.587 9.85034 
189 1 12.8173 12.1968 7.78076 
190 1 14.2489 14.6935 8.01283 
191 1 14.3736 13.0768 10.3104 
192 1 12.554 14.7912 9.93301 
193 1 -0.688412 -1.00885 11.3378 
194 1 2.03216 1.99582 12.1496 
195 1 1.62497 -0.0332865 13.6491 
196 1 -0.603997 1.89881 13.4469 
197 1 4.12151 -0.684192 12.7698 
198 1 5.75614 1.61638 12.5311 
199 1 6.22977 -0.287064 15.1247 
200 1 3.86923 1.665 14.8659 
201 1 7.45435 -0.624331 12.3528 
202 2 10.3227 1.80824 12.0184 
203 1 10.1427 -0.338959 14.8015 
204 1 7.92752 1.78429 14.5378 
205 1 12.8884 -0.825194 11.841 
206 1 13.8399 1.91501 12.3586 
207 1 13.0663 -0.839456 14.1825 
208 1 12.1519 2.41812 14.6326 
209 1 0.036253 4.57306 12.6692 
210 1 2.25053 6.10223 12.6151 
211 1 1.84682 3.70613 14.5865 
212 1 -0.429809 6.32418 14.4188 
213 1 3.89251 3.99925 12.5656 
214 2 6.22522 5.91543 12.3909 
215 1 6.0924 4.00857 15.2516 
216 1 4.08303 5.8206 15.0197 
217 1 7.78923 3.37863 12.2393 
218 1 9.46132 5.94715 12.7891 
219 1 10.1133 3.72919 14.7703 
220 1 8.19016 6.2405 15.2233 
221 1 12.2915 4.25165 12.145 
222 1 15.1053 5.29533 12.4614 
223 1 14.6362 4.40381 15.3681 
224 1 11.9457 5.7719 14.9827 
225 1 -0.202047 7.77681 12.0561 
226 1 1.94308 9.93927 12.3317 
227 1 2.10241 7.92819 15.139 
228 2 -0.565983 9.69493 14.5696 
229 1 4.16802 7.93367 12.7115 
230 1 5.89089 9.89842 12.7988 
231 1 6.64733 8.41696 15.0363 
232 1 4.32991 10.0393 14.883 
233 1 8.14144 8.55291 13.0341 
234 2 10.5194 10.1556 12.3857 
235 1 10.1813 8.42556 15.2466 
236 1 8.36254 10.6381 15.2369 
237 1 12.462 7.50656 12.4862 
238 2 14.775 10.2124 12.2376 
239 1 14.4191 7.62431 15.0262 
240 1 12.3392 10.8749 14.7225 
241 1 -0.776337 12.1541 10.9362 
242 1 1.6152 15.1638 12.3842 
243 2 2.43131 12.3226 14.3363 
244 1 -0.89959 12.816 13.6357 
245 1 4.1522 12.1885 11.9933 
246 1 5.79242 14.6212 12.4833 
247 1 5.70557 12.5478 15.0248 
248 1 4.35178 15.1818 15.0543 
249 1 8.03905 12.4678 12.5463 
250 1 10.2769 15.2245 12.8713 
251 1 10.1118 12.6637 14.4005 
252 1 8.02557 15.1216 14.2354 
253 1 12.2889 12.8189 12.5342 
254 1 14.3556 14.3945 12.4971 
255 1 14.8042 12.2547 15.9472 
256 1 12.1052 14.1543 14.556 
ITEM: TIMESTEP
200
ITEM: NUMBER OF ATOMS
256
ITEM: BOX BOUNDS pp pp pp
0.0000000000000000e+00 1.7274466334216921e+01
0.0000000000000000e+00 1.7274466334216921e+01
0.0000000000000000e+00 1.7274466334216921e+01
ITEM: ATOMS id type xu yu zu 
1 1 -0.00265768 0.138983 -0.242637 
2 1 1.75611 2.55632 -0.239548 
3 1 1.35359 -0.0991789 1.73151 
4 1 -0.567753 1.61972 1.90517 
5 2 3.23426 -0.413376 -0.299572 
6 1 5.67235 1.23754 -0.0161051 
7 1 5.89107 -0.911446 2.00654 
8 1 3.53941 1.97497 1.85392 
9 1 7.8317 -0.721786 -0.37986 
10 1 9.47756 2.07385 -0.421584 
11 1 9.86419 -0.516721 1.54576 
12 1 7.70657 1.56534 2.15305 
13 1 11.7849 -0.274867 -0.0851303 
14 1 15.085 1.18576 -1.70299 
15 1 15.3224 -0.348945 1.015 
16 1 12.454 1.81401 1.45947 
17 1 -0.931613 3.24429 -0.662816 
18 1 0.798569 5.39877 -0.678183 
19 1 1.79615 3.911 1.90255 
20 1 -0.583471 5.45533 1.66764 
21 1 4.37431 3.39351 -0.499172 
22 1 6.30636 6.12386 -0.761659 
23 1 6.16457 3.61075 1.52429 
24 1 3.9978 5.82309 2.03837 
25 1 7.89751 4.11078 -0.417183 
26 1 10.2425 5.9713 -0.014293 
27 1 9.8766 3.38355 1.69351 
28 1 8.19872 6.08433 2.13467 
29 1 12.3713 3.93712 -0.311103 
30 1 13.9463 5.90068 0.1236 
31 1 14.6583 3.54566 1.52542 
32 1 12.3153 6.89058 2.15191 
33 1 -1.29795 7.41585 -0.120875 
34 1 1.91404 10.1161 -0.859157 
35 2 1.73257 7.62686 1.07209 
36 1 -0.557318 10.1134 1.12838 
37 1 4.06597 8.05731 -0.596647 
38 1 5.50111 10.764 -0.131706 
39 1 6.11425 8.00928 1.92611 
40 1 3.34272 10.1892 1.84889 
41 1 8.32248 8.45012 -0.460728 
42 1 10.7719 10.7038 -0.411164 
43 1 9.99016 8.51555 1.82987 
44 1 7.82558 10.6181 1.62986 
45 1 12.101 8.23245 -0.281589 
46 1 14.253 10.4874 0.185454 
47 1 14.6493 7.91151 1.77745 
48 1 12.5166 10.2289 1.8866 
49 1 -0.326956 12.4721 -0.611559 
50 1 1.18658 14.8414 -0.938035 
51 1 1.13187 12.5333 1.62274 
52 1 -0.537944 14.9118 1.00539 
53 1 3.5809 12.6189 0.042106 
54 1 5.44258 14.6632 -0.563922 
55 1 5.82697 12.8462 2.31259 
56 1 2.83188 14.7269 1.80702 
57 1 8.06388 12.3647 -0.467161 
58 1 10.6842 14.656 -0.301943 
59 1 10.0693 12.4021 1.87048 
60 1 8.2303 14.3748 1.66733 
61 1 12.8059 12.506 -0.197105 
62 1 14.2929 14.8956 -0.566526 
63 1 15.3029 12.2414 1.98197 
64 1 12.0344 14.3766 1.62835 
65 1 -0.675998 -0.738479 3.24313 
66 1 1.70404 1.8365 3.61729 
67 1 1.36563 -0.157476 5.60952 
68 1 -0.452063 1.90595 5.74406 
69 1 3.63678 -0.326019 3.73605 
70 1 5.66386 2.10775 3.61053 
71 1 5.66194 -0.176733 6.08599 
72 1 3.77416 1.8101 5.72775 
73 1 8.42752 -1.03463 3.47719 
74 1 10.6543 1.41254 3.56904 
75 1 10.8141 -1.00839 5.35837 
76 2 8.75247 1.58769 5.8264 
77 1 12.6965 -0.432202 2.52062 
78 1 14.1012 1.43685 3.43803 
79 1 14.4789 0.439928 5.66588 
80 1 12.2794 1.58964 5.54592 
81 1 -0.929409 3.69678 3.81385 
82 1 1.28931 5.93425 3.89986 
83 1 1.94061 3.47429 5.88826 
84 1 -0.151775 5.60421 6.24433 
85 1 3.6781 4.03584 3.78646 
86 1 5.70622 6.29213 3.9651 
87 1 5.91835 3.72193 5.98715 
88 1 3.50007 5.97311 5.68715 
89 1 7.93617 3.90326 3.83351 
90 1 10.2495 5.77767 3.62341 
91 1 10.5753 4.24121 5.43473 
92 1 7.96836 6.0856 5.69647 
93 1 12.5874 4.00184 3.28942 
94 1 14.8519 6.37715 3.84857 
95 1 14.4846 3.35206 6.38708 
96 1 12.5649 6.19901 6.04724 
97 1 -0.366796 8.54035 3.50548 
98 1 1.50507 10.6342 3.70221 
99 1 0.704367 8.14299 5.93712 
100 1 -0.131752 10.5516 6.18171 
101 1 2.89501 8.23752 4.05501 
102 1 5.32131 10.4796 3.60078 
103 1 5.3342 8.59551 5.70525 
104 1 2.89045 10.3905 5.94811 
105 1 7.96545 8.31597 3.57187 
106 1 10.2938 10.449 3.8016 
107 1 9.94631 8.35488 5.49705 
108 1 7.77504 10.3504 5.42428 
109 1 12.3183 8.43724 4.17989 
110 1 14.8312 10.3493 3.43019 
111 2 15.1219 8.45227 5.94136 
112 1 13.1768 10.7989 5.57471 
113 1 -0.111185 12.9477 3.74472 
114 1 1.46001 15.0809 4.16114 
115 1 1.67947 12.86 5.84266 
116 1 -1.08992 15.467 5.80107 
117 1 3.51162 12.8109 3.73836 
118 1 5.86193 14.9957 4.22319 
119 1 5.61125 12.7198 5.66559 
120 1 3.92292 15.0043 5.95236 
121 1 8.22537 12.8054 3.98131 
122 1 10.2369 14.5268 3.63346 
123 1 10.8346 12.5784 5.46003 
124 1 8.16161 15.2404 5.82205 
125 1 12.6262 12.0977 3.40887 
126 1 14.4434 14.9025 2.47207 
127 1 15.3136 12.5545 5.3716 
128 1 12.7884 14.5748 5.17914 
129 1 -0.0181872 -0.297768 7.83005 
130 1 2.06175 1.7402 8.35761 
131 1 2.09409 -0.448445 10.4214 
132 1 -0.715554 0.788901 10.2713 
133 1 3.69765 -0.220186 8.07163 
134 1 5.92817 1.74364 8.27617 
135 1 5.4109 -0.841948 10.236 
136 1 3.91889 1.57913 10.4624 
137 1 7.54976 -0.96693 8.13821 
138 1 9.72039 1.39279 8.65435 
139 1 10.7428 -0.634481 9.52954 
140 1 7.99138 1.45963 10.4604 
141 1 12.6935 -1.09575 7.53994 
142 1 15.1571 1.5796 8.25494 
143 1 14.7175 -0.986981 9.31533 
144 1 12.5438 1.36461 9.88059 
145 1 -0.457422 3.5417 8.32388 
146 1 2.27438 5.7861 8.33231 
147 1 2.25019 3.46851 10.1397 
148 1 -0.86445 5.29467 10.4372 
149 1 3.89474 3.50892 8.02673 
150 1 5.58197 6.19293 7.77815 
151 1 5.43579 3.56637 10.5566 
152 1 3.82868 5.55346 10.7013 
153 1 8.55623 4.13447 8.14864 
154 1 10.4691 5.96443 7.68007 
155 1 9.88473 4.00292 10.3398 
156 1 7.96026 6.20396 10.0087 
157 2 12.0077 3.64846 8.2213 
158 1 14.3614 6.06746 8.05809 
159 1 14.0909 3.58564 10.3606 
160 1 12.7557 5.9164 10.1785 
161 1 -0.261835 7.30455 8.5151 
162 1 1.47482 10.1449 8.54671 
163 1 2.56059 8.04613 10.8837 
164 1 -0.0472236 9.74043 10.4975 
165 1 3.66263 8.35941 7.9611 
166 1 5.2081 10.7293 7.54453 
167 1 5.44088 7.91848 10.7247 
168 1 4.01276 10.1077 10.2471 
169 1 8.97809 8.17577 8.24474 
170 1 10.1795 11.116 7.87627 
171 1 10.8931 7.52533 11.0476 
172 2 7.86899 10.3256 10.1015 
173 2 12.2124 8.76959 8.34311 
174 1 15.0584 9.92009 8.77268 
175 1 14.8951 7.70136 10.1723 
176 1 12.5431 11.2091 9.92983 
177 1 -0.41426 12.16 8.26761 
178 1 1.70842 14.7463 7.74672 
179 1 2.62096 12.0065 10.7693 
180 1 -0.255507 14.8727 10.1652 
181 1 3.10181 12.5366 8.10616 
182 1 5.61444 14.6349 8.10677 
183 1 5.57575 12.4852 9.89302 
184 1 3.2581 14.7062 9.85017 
185 1 7.82868 12.7208 7.50537 
186 1 9.99381 14.1218 7.86657 
187 1 10.2723 12.6522 10.6736 
188 2 8.31003 14.9429 10.3918 
189 1 12.5519 12.4519 7.61545 
190 1 14.6371 14.3152 7.70755 
191 1 14.8496 13.1669 10.283 
192 1 12.6904 14.3361 9.8432 
193 1 -0.926494 -0.585806 12.915 
194 1 1.84917 1.34713 11.9781 
195 1 1.05671 -0.0190258 14.9011 
196 1 -0.79377 1.88035 13.188 
197 1 3.24931 -0.583229 13.3849 
198 1 5.73359 1.59366 12.7932 
199 1 5.9713 -0.399879 14.5619 
200 1 3.96817 1.72631 14.7892 
201 1 8.15 -0.501714 12.7665 
202 2 10.8053 1.40811 12.2012 
203 1 10.3324 -0.443416 15.0449 
204 1 8.23805 1.45561 14.5276 
205 1 13.4047 -0.810536 11.935 
206 1 13.8618 2.01965 12.3916 
207 1 12.9306 -0.253145 14.8991 
208 1 12.9144 2.63626 14.904 
209 1 0.647338 3.85015 12.211 
210 1 1.92264 6.21437 12.6163 
211 1 1.0998 2.69318 14.4206 
212 1 -0.516081 6.27492 14.3885 
213 1 3.63695 3.57683 12.771 
214 2 6.27536 6.14981 13.0313 
215 1 6.0236 3.29034 14.9858 
216 1 3.9306 5.76316 15.0488 
217 1 8.15409 3.51092 12.4921 
218 1 9.8541 5.53444 12.4632 
219 1 10.1329 3.73405 14.5702 
220 1 8.71612 6.49069 14.9662 
221 1 11.9936 4.2536 12.2328 
222 1 14.8237 5.0652 12.3915 
223 1 14.7192 4.45702 15.0465 
224 1 11.7673 6.02332 15.0317 
225 1 -0.173683 7.76635 12.1732 
226 1 1.23812 10.3141 12.8981 
227 1 1.70733 7.64228 15.2809 
228 2 -0.752886 9.47314 15.3321 
229 1 3.65009 8.62334 13.0239 
230 1 5.99159 10.2986 12.4948 
231 1 5.78546 8.36282 14.9304 
232 1 4.03388 10.4167 15.0121 
233 1 8.3556 8.25171 12.7121 
234 2 11.0857 10.1897 12.5249 
235 1 10.2906 8.65918 15.0823 
236 1 8.10181 10.4321 14.8247 
237 1 12.9594 7.18781 12.3154 
238 2 14.7518 10.2372 12.0419 
239 1 14.3576 7.77215 14.6859 
240 1 13.3601 10.4019 14.8148 
241 1 -0.0309079 12.2769 11.2908 
242 1 1.2315 14.5564 12.5548 
243 2 2.29283 12.7623 14.5107 
244 1 -0.458457 12.2571 13.6393 
245 1 4.36783 12.6517 12.5098 
246 1 6.20425 14.96 12.2207 
247 1 6.35334 12.262 14.2696 
248 1 4.71912 14.7301 14.3704 
249 1 7.72929 12.3223 11.8837 
250 1 10.762 15.5884 12.6916 
251 1 9.98604 13.3444 13.5737 
252 1 8.07097 14.3958 15.0389 
253 1 13.0681 12.9976 12.3953 
254 1 14.2744 14.5164 13.7527 
255 1 14.7642 12.8016 15.2643 
256 1 12.2141 13.8427 15.1226 
ITEM: TIMESTEP
300
ITEM: NUMBER OF ATOMS
256
ITEM: BOX BOUNDS pp pp pp
0.0000000000000000e+00 1.7274466334216921e+01
0.0000000000000000e+00 1.7274466334216921e+01
0.0000000000000000e+00 1.7274466334216921e+01
ITEM: ATOMS id type xu yu zu 
1 1 -0.602213 0.0864222 0.0189421 
2 1 1.54958 1.9057 0.34344 
3 1 1.33402 -0.288263 2.01173 
4 1 -0.474814 2.40483 1.72091 
5 2 3.21777 -0.631502 -0.847114 
6 1 6.38219 1.47667 -0.490043 
7 1 5.70214 -0.706365 1.41189 
8 1 4.25083 1.97773 1.64659 
9 1 8.04003 -0.34112 -0.995858 
10 1 10.2624 1.47166 -0.302255 
11 1 9.7825 -0.845435 1.04885 
12 1 7.82852 1.94896 1.73701 
13 1 12.1242 -0.791641 -0.278413 
14 1 15.0028 0.865377 -2.38722 
15 1 14.2649 1.05541 0.616555 
16 1 12.0183 2.25448 1.60755 
17 1 -1.08299 2.69659 -1.00757 
18 1 1.11779 4.96361 -0.547528 
19 1 1.45914 4.20189 1.98859 
20 1 -0.917588 5.91756 1.64723 
21 1 3.3609 3.9259 0.314208 
22 1 6.14578 6.41976 -0.870205 
23 1 5.74694 4.01361 2.09659 
24 1 3.66096 6.34143 1.61575 
25 1 8.20892 3.72485 -0.164461 
26 1 9.9139 5.9781 0.356673 
27 1 10.1882 4.20433 2.25436 
28 1 7.75531 5.89404 1.8295 
29 1 11.2094 4.07536 -0.534364 
30 1 13.6379 5.85558 -0.00821671 
31 1 14.6424 3.99645 1.44286 
32 1 12.4883 6.56893 2.57795 
33 1 -0.866211 6.56013 -0.912443 
34 1 1.94593 10.3327 -0.476873 
35 2 1.4217 7.69353 0.760846 
36 1 -0.0632121 10.5352 1.34025 
37 1 4.32608 9.01347 -0.644997 
38 1 6.15868 10.8627 0.184962 
39 1 5.91969 8.09705 1.83997 
40 1 3.39756 10.3645 1.85049 
41 1 7.83702 8.71081 -0.157605 
42 1 10.7237 10.6128 -1.64479 
43 1 9.50119 7.91184 1.8475 
44 1 8.02764 10.5688 2.21555 
45 1 12.0707 7.92979 -0.399045 
46 1 14.4678 10.38 0.245988 
47 1 14.8838 8.12214 2.09926 
48 1 12.3562 9.78672 1.82394 
49 1 -0.380798 12.5261 -0.330898 
50 1 -0.197779 14.8571 -1.6159 
51 1 1.39626 12.9947 2.05339 
52 1 -0.174805 15.3075 1.32245 
53 1 3.48627 12.5713 0.584386 
54 1 5.58564 14.1297 -0.093612 
55 1 6.4116 12.9586 2.10091 
56 1 3.63694 14.9047 2.109 
57 1 8.55496 11.6503 -0.437482 
58 1 10.1765 13.7516 -1.27707 
59 1 10.6096 11.7501 1.32757 
60 1 8.04541 14.8979 0.651842 
61 1 12.4158 12.3697 -0.330935 
62 1 14.6228 14.4912 0.136453 
63 1 15.0862 12.6985 2.12824 
64 1 12.043 14.5608 1.22511 
65 1 -1.1772 0.265679 2.98955 
66 1 1.03257 2.10034 3.9588 
67 1 1.57129 0.357947 5.95992 
68 1 -0.745325 2.10914 7.31636 
69 1 3.58626 0.0223264 3.81629 
70 1 6.10311 1.80753 4.13983 
71 1 6.19705 -0.0660214 6.23741 
72 1 3.83581 1.75622 6.22352 
73 1 7.34892 -0.315755 3.61605 
74 1 9.99689 1.47209 2.70575 
75 1 10.8615 -0.823376 5.57837 
76 2 8.78736 1.49995 5.83627 
77 1 12.1618 -0.333628 3.47407 
78 1 14.2433 1.95702 3.31682 
79 1 14.7364 0.777748 5.59082 
80 1 12.1793 1.71442 5.17726 
81 1 -0.721802 3.77042 4.53523 
82 1 1.19656 5.61021 4.08999 
83 1 1.58052 3.96663 6.07359 
84 1 -0.85793 5.53831 6.30743 
85 1 3.94108 3.74603 4.32869 
86 1 5.88119 6.16616 4.1376 
87 1 6.38628 3.98566 6.07742 
88 1 3.44178 5.76423 5.99367 
89 1 8.27525 4.0064 3.96449 
90 1 10.1452 6.45014 3.96758 
91 1 10.4144 4.14103 5.54727 
92 1 8.06519 6.23092 6.11278 
93 1 12.5225 4.12252 3.78609 
94 1 14.8623 5.63157 4.04322 
95 1 14.0106 3.80912 5.92146 
96 1 12.56 6.01774 5.82549 
97 1 -0.458472 7.87551 3.79043 
98 1 1.35068 10.8938 3.75902 
99 1 1.56911 7.71725 6.38724 
100 1 -0.255367 11.0875 5.97813 
101 1 2.86952 8.14237 3.64015 
102 1 5.58424 10.3045 3.28557 
103 1 5.19271 8.37391 5.42556 
104 1 3.1914 10.1697 5.82607 
105 1 7.68998 8.13744 3.76946 
106 1 9.99266 10.1722 3.86483 
107 1 9.97447 8.32052 5.85009 
108 1 7.63725 10.2471 5.82986 
109 1 12.1411 8.6709 4.42051 
110 1 14.5097 10.6137 3.59385 
111 2 14.9827 8.52181 6.03646 
112 1 12.2626 10.5641 6.22277 
113 1 -0.679963 13.3882 4.34715 
114 1 1.65451 14.9512 3.80421 
115 1 2.08886 12.7182 5.70793 
116 1 -1.45133 15.135 5.93234 
117 1 3.73416 12.6598 3.58674 
118 1 5.37539 15.2434 4.16698 
119 1 5.82796 12.4856 5.29378 
120 1 2.97143 15.0912 6.0783 
121 1 8.2317 12.4997 3.97615 
122 1 10.3599 14.4151 3.5309 
123 1 10.1499 12.1549 5.36283 
124 1 8.1062 15.2155 5.75293 
125 1 12.6123 12.4357 3.3195 
126 1 14.6237 15.4115 2.67067 
127 1 14.4572 12.2448 5.51831 
128 1 12.9233 14.8306 4.95 
129 1 -0.471762 -0.372835 8.2255 
130 1 2.03258 1.90467 8.26378 
131 1 1.78169 -0.794847 10.358 
132 1 -1.08072 0.337857 10.9212 
133 1 3.85903 -0.739795 8.08428 
134 1 6.83486 2.45238 8.39899 
135 1 6.00706 -0.773069 9.88068 
136 1 4.29378 1.85317 9.96824 
137 1 8.18224 -0.339835 8.31078 
138 1 9.85765 1.7879 8.7596 
139 1 10.6249 -0.880723 8.38217 
140 1 8.58949 0.691739 10.7563 
141 1 13.2454 -1.10823 6.93226 
142 1 14.2676 1.18732 8.32214 
143 1 13.9016 -1.67128 9.30339 
144 1 12.2298 0.674714 9.46145 
145 1 0.37272 4.07816 8.94666 
146 1 2.28313 5.74269 8.75147 
147 1 2.59028 3.55177 10.089 
148 1 -0.929906 6.01045 10.2841 
149 1 4.58825 3.77052 8.2154 
150 1 5.88773 6.22637 7.75917 
151 1 6.61599 4.07013 10.6195 
152 1 4.17767 5.827 10.756 
153 1 8.29394 4.36009 7.8572 
154 1 10.4444 5.83177 7.90077 
155 1 10.1187 3.66844 10.7606 
156 1 8.17718 5.99103 10.1057 
157 2 12.2002 3.56842 8.22351 
158 1 14.4669 5.82941 7.82007 
159 1 15.0787 3.42898 9.76065 
160 1 12.5562 5.94568 10.2234 
161 1 -0.133576 7.46513 8.34379 
162 1 1.88126 9.7333 8.48731 
163 1 2.19513 7.79637 10.4333 
164 1 0.0601567 9.64891 10.5444 
165 1 4.18833 8.11413 8.02578 
166 1 5.85873 10.5097 7.3929 
167 1 6.12883 7.72946 10.3478 
168 1 4.49208 10.017 9.87193 
169 1 8.79879 8.31757 7.96359 
170 1 9.94714 11.173 7.64001 
171 1 10.2324 7.70382 10.3585 
172 2 8.01023 10.2159 10.0262 
173 2 12.3101 8.71274 8.54198 
174 1 15.0435 10.4459 8.42316 
175 1 14.7107 7.90536 10.0338 
176 1 12.7434 11.3995 9.79594 
177 1 0.488329 12.2056 8.47147 
178 1 1.06188 14.5205 7.99687 
179 1 2.92895 11.6074 11.6108 
180 1 -0.749882 14.874 9.9894 
181 1 3.15416 12.0261 8.23404 
182 1 5.75386 14.7145 7.1671 
183 1 6.22939 12.3321 9.65368 
184 1 3.69601 14.3377 10.2474 
185 1 7.70485 12.732 7.5622 
186 1 10.124 13.8398 7.1595 
187 1 9.91801 12.2811 10.289 
188 2 8.8146 15.1138 10.7377 
189 1 12.7589 12.9028 7.39829 
190 1 15.2785 13.8001 8.0174 
191 1 14.9954 12.5325 10.0527 